unknown system                          
   1.0000000000000000     
     1.455566   -2.521114    0.000000
     1.455566    2.521114    0.000000
     0.000000    0.000000    9.463709
   Ag
     4
Direct
  0.000000  0.000000  0.000000
  0.000000  0.000000  0.500000
  0.333333  0.666667  0.250000
  0.666667  0.333333  0.750000

   20   20   60
 0.13882126107E+04 0.13176201310E+04 0.11075505913E+04 0.78582821404E+03 0.44410418247E+03
 0.19774441809E+03 0.81983002122E+02 0.39447028903E+02 0.22450193270E+02 0.15846413801E+02
 0.14040404404E+02 0.15846413801E+02 0.22450193270E+02 0.39447028903E+02 0.81983002122E+02
 0.19774441809E+03 0.44410418247E+03 0.78582821404E+03 0.11075505913E+04 0.13176201310E+04
 0.13176201291E+04 0.13176204384E+04 0.11768863885E+04 0.90826545989E+03 0.57314616301E+03
 0.28399965573E+03 0.11842234539E+03 0.53657140384E+02 0.28141220709E+02 0.17997512926E+02
 0.14267672201E+02 0.14267664921E+02 0.17997521342E+02 0.28141234810E+02 0.53657127827E+02
 0.11842232753E+03 0.28399966136E+03 0.57314617829E+03 0.90826560044E+03 0.11768862359E+04
 0.11075505913E+04 0.11768863904E+04 0.11075501400E+04 0.90826558384E+03 0.62200047971E+03
 0.34029223561E+03 0.15182576607E+03 0.67557341033E+02 0.34256957363E+02 0.20451145121E+02
 0.14864824421E+02 0.13298682221E+02 0.14864822821E+02 0.20451123549E+02 0.34256954711E+02
 0.67557372559E+02 0.15182577876E+03 0.34029221070E+03 0.62200032670E+03 0.90826560232E+03
 0.78582821617E+03 0.90826545588E+03 0.90826558597E+03 0.78582852527E+03 0.57314619655E+03
 0.34029204366E+03 0.16553232443E+03 0.76534033346E+02 0.39152737434E+02 0.22682183154E+02
 0.15606678436E+02 0.12829994137E+02 0.12830008756E+02 0.15606687638E+02 0.22682198080E+02
 0.39152717151E+02 0.76534008555E+02 0.16553233140E+03 0.34029221283E+03 0.57314617428E+03
 0.44410418247E+03 0.57314616489E+03 0.62200047971E+03 0.57314619442E+03 0.44410386208E+03
 0.28399964949E+03 0.15182593477E+03 0.76534004487E+02 0.41045566627E+02 0.24035981803E+02
 0.16211075488E+02 0.12680870138E+02 0.11642373392E+02 0.12680847411E+02 0.16211074276E+02
 0.24035987953E+02 0.41045583775E+02 0.76534006425E+02 0.15182577876E+03 0.28399966324E+03
 0.19774439557E+03 0.28399967637E+03 0.34029221309E+03 0.34029206831E+03 0.28399962697E+03
 0.19774473941E+03 0.11842235561E+03 0.67557221239E+02 0.39152710543E+02 0.24035995782E+02
 0.16443437519E+02 0.12665627432E+02 0.11068660124E+02 0.11068693925E+02 0.12665616104E+02
 0.16443443746E+02 0.24035965438E+02 0.39152741796E+02 0.67557350045E+02 0.11842234816E+03
 0.81983002122E+02 0.11842234727E+03 0.15182576607E+03 0.16553232230E+03 0.15182593477E+03
 0.11842237812E+03 0.81982657198E+02 0.53657091681E+02 0.34257123947E+02 0.22682212939E+02
 0.16211054615E+02 0.12665632953E+02 0.10906176310E+02 0.10381643738E+02 0.10906177143E+02
 0.12665638619E+02 0.16211074276E+02 0.22682195950E+02 0.34256954711E+02 0.53657129708E+02
 0.39447063713E+02 0.53657103694E+02 0.67557375843E+02 0.76534000667E+02 0.76534039297E+02
 0.67557163915E+02 0.53657126490E+02 0.39447391105E+02 0.28141253224E+02 0.20450939565E+02
 0.15606686501E+02 0.12680858136E+02 0.11068687979E+02 0.10381657316E+02 0.10381678548E+02
 0.11068636601E+02 0.12680882221E+02 0.15606654959E+02 0.20451158359E+02 0.28141198120E+02
 0.22450193270E+02 0.28141222589E+02 0.34256957363E+02 0.39152735304E+02 0.41045566627E+02
 0.39152733058E+02 0.34257123947E+02 0.28141218415E+02 0.22449840272E+02 0.17997519274E+02
 0.14864999411E+02 0.12830015232E+02 0.11642351435E+02 0.11068653169E+02 0.10906176310E+02
 0.11068682638E+02 0.11642373392E+02 0.12830006626E+02 0.14864822821E+02 0.17997523223E+02
 0.15846401257E+02 0.17997523590E+02 0.20451132577E+02 0.22682197828E+02 0.24035969259E+02
 0.24035985812E+02 0.22682200395E+02 0.20450986919E+02 0.17997506729E+02 0.15846758985E+02
 0.14267670128E+02 0.13298495674E+02 0.12830002688E+02 0.12680905490E+02 0.12665620409E+02
 0.12665617461E+02 0.12680857594E+02 0.12830008812E+02 0.13298669676E+02 0.14267675584E+02
 0.14040404404E+02 0.14267674082E+02 0.14864824421E+02 0.15606676306E+02 0.16211075488E+02
 0.16443460034E+02 0.16211054615E+02 0.15606651692E+02 0.14864999411E+02 0.14267682673E+02
 0.14040049048E+02 0.14267682673E+02 0.14864999411E+02 0.15606651692E+02 0.16211054615E+02
 0.16443460034E+02 0.16211075488E+02 0.15606676306E+02 0.14864824421E+02 0.14267674082E+02
 0.15846401257E+02 0.14267675584E+02 0.13298669676E+02 0.12830008812E+02 0.12680857594E+02
 0.12665617461E+02 0.12665620409E+02 0.12680905490E+02 0.12830002688E+02 0.13298495674E+02
 0.14267670128E+02 0.15846758985E+02 0.17997506729E+02 0.20450986919E+02 0.22682200395E+02
 0.24035985812E+02 0.24035969259E+02 0.22682197828E+02 0.20451132577E+02 0.17997523590E+02
 0.22450193270E+02 0.17997523223E+02 0.14864822821E+02 0.12830006626E+02 0.11642373392E+02
 0.11068682638E+02 0.10906176310E+02 0.11068653169E+02 0.11642351435E+02 0.12830015232E+02
 0.14864999411E+02 0.17997519274E+02 0.22449840272E+02 0.28141218415E+02 0.34257123947E+02
 0.39152733058E+02 0.41045566627E+02 0.39152735304E+02 0.34256957363E+02 0.28141222589E+02
 0.39447063713E+02 0.28141198120E+02 0.20451158359E+02 0.15606654959E+02 0.12680882221E+02
 0.11068636601E+02 0.10381678548E+02 0.10381657316E+02 0.11068687979E+02 0.12680858136E+02
 0.15606686501E+02 0.20450939565E+02 0.28141253224E+02 0.39447391105E+02 0.53657126490E+02
 0.67557163915E+02 0.76534039297E+02 0.76534000667E+02 0.67557375843E+02 0.53657103694E+02
 0.81983002122E+02 0.53657129708E+02 0.34256954711E+02 0.22682195950E+02 0.16211074276E+02
 0.12665638619E+02 0.10906177143E+02 0.10381643738E+02 0.10906176310E+02 0.12665632953E+02
 0.16211054615E+02 0.22682212939E+02 0.34257123947E+02 0.53657091681E+02 0.81982657198E+02
 0.11842237812E+03 0.15182593477E+03 0.16553232230E+03 0.15182576607E+03 0.11842234727E+03
 0.19774439557E+03 0.11842234816E+03 0.67557350045E+02 0.39152741796E+02 0.24035965438E+02
 0.16443443746E+02 0.12665616104E+02 0.11068693925E+02 0.11068660124E+02 0.12665627432E+02
 0.16443437519E+02 0.24035995782E+02 0.39152710543E+02 0.67557221239E+02 0.11842235561E+03
 0.19774473941E+03 0.28399962697E+03 0.34029206831E+03 0.34029221309E+03 0.28399967637E+03
 0.44410418247E+03 0.28399966324E+03 0.15182577876E+03 0.76534006425E+02 0.41045583775E+02
 0.24035987953E+02 0.16211074276E+02 0.12680847411E+02 0.11642373392E+02 0.12680870138E+02
 0.16211075488E+02 0.24035981803E+02 0.41045566627E+02 0.76534004487E+02 0.15182593477E+03
 0.28399964949E+03 0.44410386208E+03 0.57314619442E+03 0.62200047971E+03 0.57314616489E+03
 0.78582821617E+03 0.57314617428E+03 0.34029221283E+03 0.16553233140E+03 0.76534008555E+02
 0.39152717151E+02 0.22682198080E+02 0.15606687638E+02 0.12830008756E+02 0.12829994137E+02
 0.15606678436E+02 0.22682183154E+02 0.39152737434E+02 0.76534033346E+02 0.16553232443E+03
 0.34029204366E+03 0.57314619655E+03 0.78582852527E+03 0.90826558597E+03 0.90826545588E+03
 0.11075505913E+04 0.90826560232E+03 0.62200032670E+03 0.34029221070E+03 0.15182577876E+03
 0.67557372559E+02 0.34256954711E+02 0.20451123549E+02 0.14864822821E+02 0.13298682221E+02
 0.14864824421E+02 0.20451145121E+02 0.34256957363E+02 0.67557341033E+02 0.15182576607E+03
 0.34029223561E+03 0.62200047971E+03 0.90826558384E+03 0.11075501400E+04 0.11768863904E+04
 0.13176201291E+04 0.11768862359E+04 0.90826560044E+03 0.57314617829E+03 0.28399966136E+03
 0.11842232753E+03 0.53657127827E+02 0.28141234810E+02 0.17997521342E+02 0.14267664921E+02
 0.14267672201E+02 0.17997512926E+02 0.28141220709E+02 0.53657140384E+02 0.11842234539E+03
 0.28399965573E+03 0.57314616301E+03 0.90826545989E+03 0.11768863885E+04 0.13176204384E+04
 0.13052490329E+04 0.12348872969E+04 0.10281039780E+04 0.71914808460E+03 0.40083500970E+03
 0.17817323537E+03 0.75839314213E+02 0.37267957542E+02 0.21608312183E+02 0.15428029361E+02
 0.13720838619E+02 0.15428027692E+02 0.21608312203E+02 0.37267960649E+02 0.75839314160E+02
 0.17817323584E+03 0.40083500920E+03 0.71914802519E+03 0.10281039784E+04 0.12348875783E+04
 0.12348872948E+04 0.12348879459E+04 0.10965502433E+04 0.83674329483E+03 0.52073192232E+03
 0.25576926501E+03 0.10808242361E+03 0.50254752575E+02 0.26841577442E+02 0.17405568494E+02
 0.13889481571E+02 0.13889756935E+02 0.17405295990E+02 0.26841871977E+02 0.50254456011E+02
 0.10808268833E+03 0.25576899117E+03 0.52073224612E+03 0.83674314234E+03 0.10965502730E+04
 0.10281039784E+04 0.10952689775E+04 0.10281036482E+04 0.83674329733E+03 0.56666667177E+03
 0.30705692309E+03 0.13771787383E+03 0.62954429829E+02 0.32448975177E+02 0.19658987626E+02
 0.14407972958E+02 0.12924393006E+02 0.14407971370E+02 0.19658966377E+02 0.32448973227E+02
 0.62954462525E+02 0.13771788307E+03 0.30705686996E+03 0.56666656232E+03 0.83674342579E+03
 0.71914808666E+03 0.83455358731E+03 0.83455359656E+03 0.71914822633E+03 0.52073212397E+03
 0.30705674520E+03 0.14993847814E+03 0.71048190997E+02 0.36933804019E+02 0.21706093399E+02
 0.15067673545E+02 0.12436733645E+02 0.12436806251E+02 0.15067622690E+02 0.21706167534E+02
 0.36933725086E+02 0.71048227119E+02 0.14993845468E+03 0.30705693143E+03 0.52073190119E+03
 0.40083500920E+03 0.51895477778E+03 0.56389836836E+03 0.51895497511E+03 0.40083476836E+03
 0.25576912162E+03 0.13771799714E+03 0.71048190224E+02 0.38667838230E+02 0.22947827868E+02
 0.15609752596E+02 0.12261484553E+02 0.11272786984E+02 0.12261463922E+02 0.15609751801E+02
 0.22947832989E+02 0.38667851386E+02 0.71048165648E+02 0.13771788307E+03 0.25576927462E+03
 0.17817321283E+03 0.25498249183E+03 0.30538919183E+03 0.30538906092E+03 0.25498230499E+03
 0.17817347512E+03 0.10808257338E+03 0.62954356068E+02 0.36933749062E+02 0.22947836085E+02
 0.15818892752E+02 0.12228260380E+02 0.10702718922E+02 0.10702752367E+02 0.12228246892E+02
 0.15818900022E+02 0.22947809983E+02 0.36933809564E+02 0.62954439518E+02 0.10808242788E+03
 0.75839314160E+02 0.10790299610E+03 0.13719647375E+03 0.14922757217E+03 0.13719659780E+03
 0.10790316632E+03 0.75839052345E+02 0.50254560271E+02 0.32449099199E+02 0.21706152603E+02
 0.15609736662E+02 0.12228263452E+02 0.10539225426E+02 0.10034403235E+02 0.10539226668E+02
 0.12228269899E+02 0.15609751801E+02 0.21706106063E+02 0.32448973227E+02 0.50254739465E+02
 0.37267992666E+02 0.50264384581E+02 0.62902332632E+02 0.70923165255E+02 0.70923232026E+02
 0.62902165855E+02 0.50264264499E+02 0.37268241791E+02 0.26841748302E+02 0.19658825467E+02
 0.15067651405E+02 0.12261471199E+02 0.10702745556E+02 0.10034416361E+02 0.10034435252E+02
 0.10702697343E+02 0.12261495939E+02 0.15067652144E+02 0.19658998394E+02 0.26841556506E+02
 0.21608312203E+02 0.26912346372E+02 0.32556844925E+02 0.37047025033E+02 0.38777904260E+02
 0.37046994848E+02 0.32556969259E+02 0.26912480078E+02 0.21608042587E+02 0.17405436057E+02
 0.14408104302E+02 0.12436782050E+02 0.11272769871E+02 0.10702713539E+02 0.10539225426E+02
 0.10702741929E+02 0.11272786984E+02 0.12436744780E+02 0.14407971370E+02 0.17405579444E+02
 0.15428016782E+02 0.17492948136E+02 0.19819863195E+02 0.21915756522E+02 0.23179559220E+02
 0.23179570497E+02 0.21915788224E+02 0.19819761112E+02 0.17492792564E+02 0.15428288915E+02
 0.13889620874E+02 0.12924251372E+02 0.12436771140E+02 0.12261514126E+02 0.12228252542E+02
 0.12228248284E+02 0.12261473643E+02 0.12436806026E+02 0.12924382096E+02 0.13889484391E+02
 0.13720838619E+02 0.13979675617E+02 0.14582136388E+02 0.15309465934E+02 0.15893775325E+02
 0.16116925388E+02 0.15893759098E+02 0.15309410917E+02 0.14582267899E+02 0.13979825525E+02
 0.13720566675E+02 0.13889631784E+02 0.14408104302E+02 0.15067619388E+02 0.15609736662E+02
 0.15818915759E+02 0.15609752596E+02 0.15067612074E+02 0.14407972958E+02 0.13889765026E+02
 0.15428015030E+02 0.13979959571E+02 0.13100521496E+02 0.12687556861E+02 0.12567352174E+02
 0.12563142594E+02 0.12563142909E+02 0.12567399443E+02 0.12687577919E+02 0.13100392261E+02
 0.13979811194E+02 0.15428292337E+02 0.17405421726E+02 0.19658871815E+02 0.21706138271E+02
 0.22947827410E+02 0.22947813536E+02 0.21706169201E+02 0.19658973295E+02 0.17405299370E+02
 0.21608312183E+02 0.17492667158E+02 0.14582134749E+02 0.12687612614E+02 0.11585200982E+02
 0.11056719117E+02 0.10908207544E+02 0.11056688184E+02 0.11585183508E+02 0.12687592250E+02
 0.14582267899E+02 0.17492803474E+02 0.21608042587E+02 0.26841716285E+02 0.32449099199E+02
 0.36933772069E+02 0.38667838230E+02 0.36933742548E+02 0.32448975177E+02 0.26841860897E+02
 0.37267995693E+02 0.26912601795E+02 0.19819889580E+02 0.15309384293E+02 0.12567379242E+02
 0.11056672445E+02 0.10416398998E+02 0.10416377014E+02 0.11056726336E+02 0.12567346961E+02
 0.15309449068E+02 0.19819712050E+02 0.26912518229E+02 0.37268235656E+02 0.50254598422E+02
 0.62954294910E+02 0.71048228375E+02 0.71048214316E+02 0.62954467980E+02 0.50254430969E+02
 0.75839314213E+02 0.50264127185E+02 0.32556842986E+02 0.21915813819E+02 0.15893774500E+02
 0.12563161492E+02 0.10908208805E+02 0.10416360846E+02 0.10908207544E+02 0.12563157241E+02
 0.15893759098E+02 0.21915799134E+02 0.32556969259E+02 0.50264232482E+02 0.75839052345E+02
 0.10808259639E+03 0.13771799714E+03 0.14993841667E+03 0.13771787383E+03 0.10808270707E+03
 0.17817321331E+03 0.10790327919E+03 0.62902307666E+02 0.37046972896E+02 0.23179554375E+02
 0.16116910249E+02 0.12563139435E+02 0.11056732653E+02 0.11056697060E+02 0.12563150320E+02
 0.16116903331E+02 0.23179581644E+02 0.37046972791E+02 0.62902219929E+02 0.10790314427E+03
 0.17817347417E+03 0.25576909956E+03 0.30705682873E+03 0.30705690103E+03 0.25576900361E+03
 0.40083500970E+03 0.25498219904E+03 0.13719648353E+03 0.70923231822E+02 0.38777917825E+02
 0.23179576432E+02 0.15893774500E+02 0.12567341091E+02 0.11585200982E+02 0.12567366505E+02
 0.15893775325E+02 0.23179570130E+02 0.38777904260E+02 0.70923200009E+02 0.13719659780E+03
 0.25498232800E+03 0.40083476836E+03 0.52073206250E+03 0.56666667177E+03 0.52073220577E+03
 0.71914802736E+03 0.51895509480E+03 0.30538916348E+03 0.14922755060E+03 0.70923174576E+02
 0.37047008086E+02 0.21915756572E+02 0.15309479691E+02 0.12687555367E+02 0.12687599777E+02
 0.15309408687E+02 0.21915802859E+02 0.37046967787E+02 0.70923254518E+02 0.14922751492E+03
 0.30538909516E+03 0.51895491787E+03 0.71914834505E+03 0.83674324008E+03 0.83674306862E+03
 0.10281039780E+04 0.83455344142E+03 0.56389825903E+03 0.30538922072E+03 0.13719648353E+03
 0.62902329723E+02 0.32556842986E+02 0.19819851428E+02 0.14582134749E+02 0.13100535828E+02
 0.14582136388E+02 0.19819874105E+02 0.32556844925E+02 0.62902300615E+02 0.13719647375E+03
 0.30538921483E+03 0.56389836836E+03 0.83455353509E+03 0.10281036482E+04 0.10965505268E+04
 0.12348875762E+04 0.10952690056E+04 0.83455372079E+03 0.51895475818E+03 0.25498247841E+03
 0.10790297777E+03 0.50264406552E+02 0.26912360580E+02 0.17492946525E+02 0.13979665872E+02
 0.13979954984E+02 0.17492657858E+02 0.26912625739E+02 0.50264137231E+02 0.10790327546E+03
 0.25498218945E+03 0.51895505715E+03 0.83455336942E+03 0.10952692569E+04 0.12348873831E+04
 0.10594642634E+04 0.99287249975E+03 0.80451302029E+03 0.54176690844E+03 0.29244073625E+03
 0.13173271541E+03 0.61032262791E+02 0.31751783083E+02 0.19405905404E+02 0.14300892841E+02
 0.12853049719E+02 0.14300889432E+02 0.19405905434E+02 0.31751790496E+02 0.61032262665E+02
 0.13173271596E+03 0.29244073560E+03 0.54176684561E+03 0.80451302150E+03 0.99287283327E+03
 0.99287249784E+03 0.99287308283E+03 0.86587846630E+03 0.63965695781E+03 0.38412711608E+03
 0.18641541142E+03 0.83627523733E+02 0.41682144340E+02 0.23541842884E+02 0.15896319814E+02
 0.12937748468E+02 0.12938077304E+02 0.15895995538E+02 0.23542188541E+02 0.41681791194E+02
 0.83627843588E+02 0.18641508680E+03 0.38412748968E+03 0.63965668553E+03 0.86587859329E+03
 0.80451302150E+03 0.86432950889E+03 0.80451290446E+03 0.63965687212E+03 0.42012751700E+03
 0.22349951549E+03 0.10393963707E+03 0.51341700181E+02 0.27899273667E+02 0.17694065137E+02
 0.13316026124E+02 0.12052426588E+02 0.13316024691E+02 0.17694044218E+02 0.27899273381E+02
 0.51341733724E+02 0.10393964203E+03 0.22349946456E+03 0.42012748001E+03 0.63965702095E+03
 0.54176690989E+03 0.63708524665E+03 0.63708516727E+03 0.54176690032E+03 0.38412733771E+03
 0.22349941247E+03 0.11233975077E+03 0.57438185457E+02 0.31350766091E+02 0.19309795946E+02
 0.13815524896E+02 0.11576255862E+02 0.11576328972E+02 0.13815471211E+02 0.19309871209E+02
 0.31350686685E+02 0.57438225460E+02 0.11233972371E+03 0.22349952884E+03 0.38412708997E+03
 0.29244073560E+03 0.38214382056E+03 0.41700899948E+03 0.38214403849E+03 0.29244064125E+03
 0.18641524873E+03 0.10393968376E+03 0.57438180479E+02 0.32680092741E+02 0.20283076086E+02
 0.14229737892E+02 0.11377434630E+02 0.10526685207E+02 0.11377416298E+02 0.14229738111E+02
 0.20283079520E+02 0.32680100241E+02 0.57438161178E+02 0.10393964203E+03 0.18641542223E+03
 0.13173269279E+03 0.18561365793E+03 0.22175418992E+03 0.22175413267E+03 0.18561345144E+03
 0.13173280538E+03 0.83627695633E+02 0.51341705731E+02 0.31350714591E+02 0.20283076608E+02
 0.14389928173E+02 0.11320567209E+02 0.99996175898E+01 0.99996508768E+01 0.11320550650E+02
 0.14389937490E+02 0.20283056355E+02 0.31350774132E+02 0.51341710559E+02 0.83627531329E+02
 0.61032262665E+02 0.83490275243E+02 0.10347937605E+03 0.11169287912E+03 0.10347942444E+03
 0.83490467700E+02 0.61032153558E+02 0.41681923317E+02 0.27899323142E+02 0.19309852856E+02
 0.14229729879E+02 0.11320567166E+02 0.98449562802E+01 0.94015783727E+01 0.98449583966E+01
 0.11320573815E+02 0.14229738111E+02 0.19309806928E+02 0.27899273381E+02 0.41682126618E+02
 0.31751818846E+02 0.41767634339E+02 0.51410354733E+02 0.57451117604E+02 0.57451181775E+02
 0.51410265175E+02 0.41767486685E+02 0.31751922152E+02 0.23542034504E+02 0.17693980835E+02
 0.13815501975E+02 0.11377418073E+02 0.99996423967E+01 0.94015919080E+01 0.94016067220E+01
 0.99995993622E+01 0.11377444647E+02 0.13815507143E+02 0.17694072568E+02 0.23541824768E+02
 0.19405905434E+02 0.23705747813E+02 0.28177217318E+02 0.31683404254E+02 0.33026209299E+02
 0.31683377078E+02 0.28177267916E+02 0.23705901719E+02 0.19405789869E+02 0.15896164221E+02
 0.13316079846E+02 0.11576302158E+02 0.10526675807E+02 0.99996140474E+01 0.98449562802E+01
 0.99996407550E+01 0.10526685207E+02 0.11576264690E+02 0.13316024691E+02 0.15896330962E+02
 0.14300880024E+02 0.16081614429E+02 0.18042172220E+02 0.19775211307E+02 0.20807344988E+02
 0.20807349003E+02 0.19775240825E+02 0.18042148221E+02 0.16081435277E+02 0.14300996519E+02
 0.12937913830E+02 0.12052364554E+02 0.11576292751E+02 0.11377455830E+02 0.11320557759E+02
 0.11320553451E+02 0.11377425223E+02 0.11576329551E+02 0.12052417180E+02 0.12937751287E+02
 0.12853049719E+02 0.13127242627E+02 0.13683866588E+02 0.14330111611E+02 0.14838511635E+02
 0.15030595320E+02 0.14838503246E+02 0.14330054652E+02 0.13683921261E+02 0.13127418744E+02
 0.12852931985E+02 0.12937923238E+02 0.13316079846E+02 0.13815473626E+02 0.14229729879E+02
 0.14389951338E+02 0.14229737892E+02 0.13815460614E+02 0.13316026124E+02 0.12938083892E+02
 0.14300876681E+02 0.13127580231E+02 0.12424380875E+02 0.12109055304E+02 0.12029962274E+02
 0.12036394345E+02 0.12036391197E+02 0.12030007471E+02 0.12109074379E+02 0.12424330744E+02
 0.13127402585E+02 0.14301003271E+02 0.15896148062E+02 0.17694025344E+02 0.19309836696E+02
 0.20283069602E+02 0.20283059927E+02 0.19309876387E+02 0.17694048977E+02 0.15896000549E+02
 0.19405905404E+02 0.16081281326E+02 0.13683865210E+02 0.12109112442E+02 0.11194686157E+02
 0.10759103115E+02 0.10637255430E+02 0.10759069636E+02 0.11194676338E+02 0.12109090538E+02
 0.13683921261E+02 0.16081444684E+02 0.19405789869E+02 0.23542006154E+02 0.27899323142E+02
 0.31350737756E+02 0.32680092741E+02 0.31350701810E+02 0.27899273667E+02 0.23542178309E+02
 0.31751826221E+02 0.23706053840E+02 0.18042199729E+02 0.14330025394E+02 0.12029992404E+02
 0.10759055636E+02 0.10223620617E+02 0.10223598517E+02 0.10759112775E+02 0.12029948173E+02
 0.14330097791E+02 0.18042095675E+02 0.23705944858E+02 0.31751907363E+02 0.41681966456E+02
 0.51341639427E+02 0.57438223618E+02 0.57438206600E+02 0.51341743320E+02 0.41681765777E+02
 0.61032262791E+02 0.41767320767E+02 0.28177217208E+02 0.19775270507E+02 0.14838511985E+02
 0.12036410020E+02 0.10637257581E+02 0.10223577478E+02 0.10637255430E+02 0.12036407356E+02
 0.14838503246E+02 0.19775250232E+02 0.28177267916E+02 0.41767458336E+02 0.61032153558E+02
 0.83627718798E+02 0.10393968376E+03 0.11233968648E+03 0.10393963707E+03 0.83627859157E+02
 0.13173269342E+03 0.83490613588E+02 0.51410329845E+02 0.31683350619E+02 0.20807338582E+02
 0.15030582112E+02 0.12036388035E+02 0.10759120759E+02 0.10759081131E+02 0.12036400170E+02
 0.15030573336E+02 0.20807361580E+02 0.31683355094E+02 0.51410315509E+02 0.83490445716E+02
 0.13173280420E+03 0.18641522675E+03 0.22349949874E+03 0.22349949350E+03 0.18641509798E+03
 0.29244073625E+03 0.18561331394E+03 0.10347938191E+03 0.57451189608E+02 0.33026217368E+02
 0.20807360567E+02 0.14838511985E+02 0.12029949266E+02 0.11194686157E+02 0.12029978433E+02
 0.14838511635E+02 0.20807354395E+02 0.33026209299E+02 0.57451153426E+02 0.10347942444E+03
 0.18561347460E+03 0.29244064125E+03 0.38412727343E+03 0.42012751700E+03 0.38412745150E+03
 0.54176684729E+03 0.38214418789E+03 0.22175416325E+03 0.11169285326E+03 0.57451128460E+02
 0.31683389783E+02 0.19775209359E+02 0.14330129681E+02 0.12109051294E+02 0.12109100292E+02
 0.14330050463E+02 0.19775263048E+02 0.31683343106E+02 0.57451207101E+02 0.11169281797E+03
 0.22175417066E+03 0.38214397735E+03 0.54176702575E+03 0.63965681098E+03 0.63965668353E+03
 0.80451302029E+03 0.63708498091E+03 0.41700896212E+03 0.22175422439E+03 0.10347938191E+03
 0.51410351830E+02 0.28177217208E+02 0.18042156590E+02 0.13683865210E+02 0.12424397035E+02
 0.13683866588E+02 0.18042181627E+02 0.28177217318E+02 0.51410326384E+02 0.10347937605E+03
 0.22175421309E+03 0.41700899948E+03 0.63708510299E+03 0.80451290446E+03 0.86587880172E+03
 0.99287283127E+03 0.86432963529E+03 0.63708531243E+03 0.38214379523E+03 0.18561364546E+03
 0.83490260084E+02 0.41767652287E+02 0.23705765459E+02 0.16081612846E+02 0.13127232552E+02
 0.13127574147E+02 0.16081273502E+02 0.23706079333E+02 0.41767331169E+02 0.83490606762E+02
 0.18561330324E+03 0.38214415208E+03 0.63708497942E+03 0.86432984041E+03 0.99287241589E+03
 0.69610431207E+03 0.64359018191E+03 0.50285624085E+03 0.32402224072E+03 0.17234761547E+03
 0.84315451965E+02 0.44063677295E+02 0.25135766527E+02 0.16593050454E+02 0.12799694922E+02
 0.11689294190E+02 0.12799690054E+02 0.16593050517E+02 0.25135779583E+02 0.44063676922E+02
 0.84315452421E+02 0.17234761542E+03 0.32402219983E+03 0.50285624206E+03 0.64359041490E+03
 0.64359018067E+03 0.64359054027E+03 0.54739633420E+03 0.38825143764E+03 0.22593383998E+03
 0.11343567830E+03 0.57887984760E+02 0.31572974947E+02 0.19440156430E+02 0.13912467291E+02
 0.11660906310E+02 0.11661135371E+02 0.13912243921E+02 0.19440400211E+02 0.31572716875E+02
 0.57888206965E+02 0.11343545269E+03 0.22593409975E+03 0.38825122636E+03 0.54739644373E+03
 0.50285624206E+03 0.54645203805E+03 0.50285622886E+03 0.38825135743E+03 0.24764146437E+03
 0.13357386571E+03 0.69271819637E+02 0.37718657475E+02 0.22354638914E+02 0.15157099963E+02
 0.11860478339E+02 0.10884454504E+02 0.11860477414E+02 0.15157079581E+02 0.22354640318E+02
 0.37718693252E+02 0.69271823337E+02 0.13357383035E+03 0.24764145723E+03 0.38825146059E+03
 0.32402224125E+03 0.38677769394E+03 0.38677761752E+03 0.32402219008E+03 0.22593398890E+03
 0.13357381170E+03 0.73804278017E+02 0.41569122337E+02 0.24619043738E+02 0.16262144342E+02
 0.12163955996E+02 0.10432343395E+02 0.10432390929E+02 0.12163925163E+02 0.16262194715E+02
 0.24618989511E+02 0.41569135871E+02 0.73804259956E+02 0.13357387176E+03 0.22593382410E+03
 0.17234761542E+03 0.22492372417E+03 0.24601641808E+03 0.22492387099E+03 0.17234760254E+03
 0.11343557247E+03 0.69271831826E+02 0.41569093600E+02 0.25483387797E+02 0.16921702136E+02
 0.12425781420E+02 0.10213657314E+02 0.95463702702E+01 0.10213641393E+02 0.12425782598E+02
 0.16921704405E+02 0.25483392797E+02 0.41569094454E+02 0.69271823337E+02 0.11343568691E+03
 0.84315428720E+02 0.11313149080E+03 0.13283706422E+03 0.13283705629E+03 0.11313133987E+03
 0.84315459086E+02 0.57888099077E+02 0.37718707005E+02 0.24619009034E+02 0.16921699022E+02
 0.12528409139E+02 0.10133938123E+02 0.90872927214E+01 0.90873263546E+01 0.10133918285E+02
 0.12528420586E+02 0.16921680705E+02 0.24619054629E+02 0.37718669551E+02 0.57887996440E+02
 0.44063676922E+02 0.57955268838E+02 0.69259281155E+02 0.73727525367E+02 0.69259294448E+02
 0.57955404998E+02 0.44063654875E+02 0.31572801861E+02 0.22354651291E+02 0.16262185150E+02
 0.12425777869E+02 0.10133934977E+02 0.89489914810E+01 0.85904290032E+01 0.89489939788E+01
 0.10133941986E+02 0.12425782598E+02 0.16262153297E+02 0.22354640318E+02 0.31572951101E+02
 0.25135803443E+02 0.31806195427E+02 0.38079683759E+02 0.41969722328E+02 0.41969766650E+02
 0.38079635184E+02 0.31806097164E+02 0.25135828077E+02 0.19440290163E+02 0.15157057001E+02
 0.12163945377E+02 0.10213641020E+02 0.90873156177E+01 0.85904424525E+01 0.85904528641E+01
 0.90872787931E+01 0.10213665254E+02 0.12163942720E+02 0.15157103442E+02 0.19440142124E+02
 0.16593050517E+02 0.19737523461E+02 0.22888556967E+02 0.25298723045E+02 0.26210887345E+02
 0.25298712350E+02 0.22888570731E+02 0.19737618927E+02 0.16593024433E+02 0.13912365904E+02
 0.11860491378E+02 0.10432374450E+02 0.95463654826E+01 0.90872917569E+01 0.89489914810E+01
 0.90873164221E+01 0.95463702702E+01 0.10432349512E+02 0.11860477414E+02 0.13912478147E+02
 0.12799681758E+02 0.14232500649E+02 0.15759465883E+02 0.17073565781E+02 0.17842472072E+02
 0.17842471892E+02 0.17073579212E+02 0.15759485095E+02 0.14232374417E+02 0.12799707433E+02
 0.11661020469E+02 0.10884435537E+02 0.10432366154E+02 0.10213673176E+02 0.10133926681E+02
 0.10133922718E+02 0.10213649019E+02 0.10432393107E+02 0.10884446209E+02 0.11660909440E+02
 0.11689294190E+02 0.11989818298E+02 0.12493712214E+02 0.13043175740E+02 0.13461658852E+02
 0.13617318997E+02 0.13461655788E+02 0.13043128930E+02 0.12493726177E+02 0.11989944178E+02
 0.11689266597E+02 0.11661028764E+02 0.11860491378E+02 0.12163921516E+02 0.12425777869E+02
 0.12528432840E+02 0.12425781420E+02 0.12163914578E+02 0.11860478339E+02 0.11661140535E+02
 0.12799677003E+02 0.11990057745E+02 0.11528330561E+02 0.11348338833E+02 0.11326881814E+02
 0.11348983679E+02 0.11348977112E+02 0.11326928561E+02 0.11348342980E+02 0.11528323837E+02
 0.11989926260E+02 0.12799717056E+02 0.13912347985E+02 0.15157098780E+02 0.16262167231E+02
 0.16921693240E+02 0.16921684217E+02 0.16262203678E+02 0.15157082044E+02 0.13912250984E+02
 0.16593050454E+02 0.14232266813E+02 0.12493711335E+02 0.11348371971E+02 0.10690247859E+02
 0.10380536098E+02 0.10294459979E+02 0.10380498879E+02 0.10690243194E+02 0.11348360898E+02
 0.12493726177E+02 0.14232382713E+02 0.16593024433E+02 0.19440266302E+02 0.22354651291E+02
 0.24619032735E+02 0.25483387797E+02 0.24619002321E+02 0.22354638914E+02 0.19440390656E+02
 0.25135816540E+02 0.19737727742E+02 0.15759495484E+02 0.13043109281E+02 0.11326915879E+02
 0.10380486487E+02 0.99862852324E+01 0.99862621633E+01 0.10380548891E+02 0.11326860630E+02
 0.13043178942E+02 0.15759426787E+02 0.19737668939E+02 0.25135801925E+02 0.31572851874E+02
 0.37718633292E+02 0.41569143613E+02 0.41569113742E+02 0.37718707488E+02 0.31572690708E+02
 0.44063677295E+02 0.31805976492E+02 0.22888558807E+02 0.17073601326E+02 0.13461660486E+02
 0.11348996702E+02 0.10294462844E+02 0.99862352198E+01 0.10294459979E+02 0.11348995030E+02
 0.13461655788E+02 0.17073587508E+02 0.22888570731E+02 0.31806073303E+02 0.44063654875E+02
 0.57888122778E+02 0.69271831826E+02 0.73804236600E+02 0.69271819637E+02 0.57888218986E+02
 0.84315429278E+02 0.57955511246E+02 0.38079659305E+02 0.25298693378E+02 0.17842464203E+02
 0.13617307265E+02 0.11348974015E+02 0.10380559186E+02 0.10380513411E+02 0.11348988447E+02
 0.13617296310E+02 0.17842486284E+02 0.25298689663E+02 0.38079681732E+02 0.57955382311E+02
 0.84315458072E+02 0.11343554978E+03 0.13357387580E+03 0.13357384302E+03 0.11343546676E+03
 0.17234761547E+03 0.11313124445E+03 0.69259285419E+02 0.41969771482E+02 0.26210892321E+02
 0.17842486890E+02 0.13461660486E+02 0.11326865867E+02 0.10690247859E+02 0.11326899732E+02
 0.13461658852E+02 0.17842480367E+02 0.26210887345E+02 0.41969742789E+02 0.69259294448E+02
 0.11313136357E+03 0.17234760254E+03 0.22593394748E+03 0.24764146437E+03 0.22593407420E+03
 0.32402220060E+03 0.22492398057E+03 0.13283705279E+03 0.73727507347E+02 0.41969731354E+02
 0.25298710819E+02 0.17073561198E+02 0.13043199422E+02 0.11348331843E+02 0.11348361042E+02
 0.13043135613E+02 0.17073597614E+02 0.25298682917E+02 0.41969786316E+02 0.73727485239E+02
 0.13283707271E+03 0.22492383087E+03 0.32402227162E+03 0.38825131730E+03 0.38825124354E+03
 0.50285624085E+03 0.38677748693E+03 0.24601640999E+03 0.13283709292E+03 0.69259285419E+02
 0.38079681992E+02 0.22888558807E+02 0.15759445472E+02 0.12493711335E+02 0.11528348479E+02
 0.12493712214E+02 0.15759474179E+02 0.22888556967E+02 0.38079659898E+02 0.69259281155E+02
 0.13283708793E+03 0.24601641808E+03 0.38677757610E+03 0.50285622886E+03 0.54739656843E+03
 0.64359041357E+03 0.54645214767E+03 0.38677771859E+03 0.22492370877E+03 0.11313147612E+03
 0.57955256895E+02 0.31806208157E+02 0.19737546090E+02 0.14232498477E+02 0.11989808162E+02
 0.11990049962E+02 0.14232260689E+02 0.19737755126E+02 0.31805987623E+02 0.57955500502E+02
 0.11313123544E+03 0.22492395584E+03 0.38677750370E+03 0.54645226972E+03 0.64359007438E+03
 0.34608090962E+03 0.31647618866E+03 0.24141650268E+03 0.15485974676E+03 0.89082175571E+02
 0.51132199342E+02 0.30072660801E+02 0.19309687988E+02 0.13912341670E+02 0.11328619649E+02
 0.10555516548E+02 0.11328613437E+02 0.13912341573E+02 0.19309706693E+02 0.30072660522E+02
 0.51132196445E+02 0.89082176210E+02 0.15485971490E+03 0.24141650290E+03 0.31647634137E+03
 0.31647618771E+03 0.31647641968E+03 0.26440506010E+03 0.18464817879E+03 0.11144869776E+03