Written by BaderKit
   1.00000000000000
     1.455566   -2.521114    0.000000
     1.455566    2.521114    0.000000
     0.000000    0.000000    9.463709
Ag   M    
     4    10
Direct
  0.000000  0.000000  0.000000
  0.000000  0.000000  0.500000
  0.333333  0.666667  0.250000
  0.666667  0.333333  0.750000
  0.334804  0.665220  0.751836
  0.665220  0.334804  0.251836
  0.667379  0.336475  0.562690
  0.663525  0.332621  0.937310
  0.332621  0.663525  0.437310
  0.336475  0.667379  0.062690
  0.999672  0.999657  0.313128
  0.000343  0.000328  0.186872
  0.999657  0.999672  0.813128
  0.000328  0.000343  0.686872
 
    20    20    60
 0.22010000000E+00 0.30230000000E+00 0.48305000000E+00 0.60237000000E+00 0.60955000000E+00
 0.52194000000E+00 0.37722000000E+00 0.25038000000E+00 0.18574000000E+00 0.15717000000E+00
 0.14373000000E+00 0.15717000000E+00 0.18574000000E+00 0.25038000000E+00 0.37722000000E+00
 0.52194000000E+00 0.60955000000E+00 0.60237000000E+00 0.48305000000E+00 0.30230000000E+00
 0.30230000000E+00 0.30229000000E+00 0.43477000000E+00 0.57313000000E+00 0.61922000000E+00
 0.56835000000E+00 0.44240000000E+00 0.29934000000E+00 0.20809000000E+00 0.16891000000E+00
 0.14848000000E+00 0.14829000000E+00 0.16908000000E+00 0.20797000000E+00 0.29941000000E+00
 0.44237000000E+00 0.56836000000E+00 0.61922000000E+00 0.57313000000E+00 0.43477000000E+00
 0.48305000000E+00 0.43477000000E+00 0.48307000000E+00 0.57312000000E+00 0.61882000000E+00
 0.58758000000E+00 0.48245000000E+00 0.34106000000E+00 0.23199000000E+00 0.18081000000E+00
 0.15800000000E+00 0.14806000000E+00 0.15797000000E+00 0.18086000000E+00 0.23197000000E+00
 0.34106000000E+00 0.48245000000E+00 0.58757000000E+00 0.61883000000E+00 0.57313000000E+00
 0.60237000000E+00 0.57313000000E+00 0.57312000000E+00 0.60237000000E+00 0.61922000000E+00
 0.58759000000E+00 0.49556000000E+00 0.36444000000E+00 0.25070000000E+00 0.19102000000E+00
 0.16637000000E+00 0.15517000000E+00 0.15505000000E+00 0.16645000000E+00 0.19095000000E+00
 0.25075000000E+00 0.36441000000E+00 0.49559000000E+00 0.58757000000E+00 0.61922000000E+00
 0.60955000000E+00 0.61922000000E+00 0.61882000000E+00 0.61922000000E+00 0.60957000000E+00
 0.56834000000E+00 0.48243000000E+00 0.36445000000E+00 0.25786000000E+00 0.19702000000E+00
 0.17134000000E+00 0.16205000000E+00 0.16118000000E+00 0.16208000000E+00 0.17135000000E+00
 0.19699000000E+00 0.25789000000E+00 0.36441000000E+00 0.48245000000E+00 0.56836000000E+00
 0.52194000000E+00 0.56835000000E+00 0.58758000000E+00 0.58759000000E+00 0.56834000000E+00
 0.52190000000E+00 0.44243000000E+00 0.34109000000E+00 0.25070000000E+00 0.19704000000E+00
 0.17278000000E+00 0.16501000000E+00 0.16929000000E+00 0.16925000000E+00 0.16499000000E+00
 0.17282000000E+00 0.19700000000E+00 0.25074000000E+00 0.34106000000E+00 0.44237000000E+00
 0.37722000000E+00 0.44240000000E+00 0.48245000000E+00 0.49556000000E+00 0.48243000000E+00
 0.44242000000E+00 0.37731000000E+00 0.29931000000E+00 0.23192000000E+00 0.19100000000E+00
 0.17132000000E+00 0.16497000000E+00 0.17252000000E+00 0.18057000000E+00 0.17252000000E+00
 0.16495000000E+00 0.17136000000E+00 0.19094000000E+00 0.23197000000E+00 0.29941000000E+00
 0.25036000000E+00 0.29936000000E+00 0.34104000000E+00 0.36446000000E+00 0.36444000000E+00
 0.34110000000E+00 0.29930000000E+00 0.25020000000E+00 0.20812000000E+00 0.18096000000E+00
 0.16637000000E+00 0.16216000000E+00 0.16924000000E+00 0.18054000000E+00 0.18048000000E+00
 0.16939000000E+00 0.16200000000E+00 0.16651000000E+00 0.18083000000E+00 0.20799000000E+00
 0.18575000000E+00 0.20808000000E+00 0.23199000000E+00 0.25069000000E+00 0.25787000000E+00
 0.25069000000E+00 0.23191000000E+00 0.20814000000E+00 0.18603000000E+00 0.16888000000E+00
 0.15786000000E+00 0.15509000000E+00 0.16114000000E+00 0.16931000000E+00 0.17252000000E+00
 0.16921000000E+00 0.16122000000E+00 0.15502000000E+00 0.15799000000E+00 0.16906000000E+00
 0.15717000000E+00 0.16890000000E+00 0.18082000000E+00 0.19102000000E+00 0.19702000000E+00
 0.19705000000E+00 0.19102000000E+00 0.18092000000E+00 0.16889000000E+00 0.15678000000E+00
 0.14842000000E+00 0.14823000000E+00 0.15512000000E+00 0.16207000000E+00 0.16501000000E+00
 0.16503000000E+00 0.16205000000E+00 0.15516000000E+00 0.14807000000E+00 0.14828000000E+00
 0.14372000000E+00 0.14849000000E+00 0.15800000000E+00 0.16637000000E+00 0.17134000000E+00
 0.17277000000E+00 0.17129000000E+00 0.16642000000E+00 0.15784000000E+00 0.14842000000E+00
 0.14416000000E+00 0.14842000000E+00 0.15784000000E+00 0.16642000000E+00 0.17129000000E+00
 0.17277000000E+00 0.17134000000E+00 0.16637000000E+00 0.15800000000E+00 0.14849000000E+00
 0.15717000000E+00 0.14828000000E+00 0.14807000000E+00 0.15516000000E+00 0.16205000000E+00
 0.16503000000E+00 0.16501000000E+00 0.16207000000E+00 0.15512000000E+00 0.14823000000E+00
 0.14842000000E+00 0.15678000000E+00 0.16889000000E+00 0.18092000000E+00 0.19102000000E+00
 0.19705000000E+00 0.19702000000E+00 0.19102000000E+00 0.18082000000E+00 0.16890000000E+00
 0.18575000000E+00 0.16906000000E+00 0.15799000000E+00 0.15502000000E+00 0.16122000000E+00
 0.16921000000E+00 0.17252000000E+00 0.16931000000E+00 0.16114000000E+00 0.15509000000E+00
 0.15786000000E+00 0.16888000000E+00 0.18603000000E+00 0.20814000000E+00 0.23191000000E+00
 0.25069000000E+00 0.25787000000E+00 0.25069000000E+00 0.23199000000E+00 0.20808000000E+00
 0.25036000000E+00 0.20799000000E+00 0.18083000000E+00 0.16651000000E+00 0.16200000000E+00
 0.16939000000E+00 0.18048000000E+00 0.18054000000E+00 0.16924000000E+00 0.16216000000E+00
 0.16637000000E+00 0.18096000000E+00 0.20812000000E+00 0.25020000000E+00 0.29930000000E+00
 0.34110000000E+00 0.36444000000E+00 0.36446000000E+00 0.34104000000E+00 0.29936000000E+00
 0.37722000000E+00 0.29941000000E+00 0.23197000000E+00 0.19094000000E+00 0.17136000000E+00
 0.16495000000E+00 0.17252000000E+00 0.18057000000E+00 0.17252000000E+00 0.16497000000E+00
 0.17132000000E+00 0.19100000000E+00 0.23192000000E+00 0.29931000000E+00 0.37731000000E+00
 0.44242000000E+00 0.48243000000E+00 0.49556000000E+00 0.48245000000E+00 0.44240000000E+00
 0.52194000000E+00 0.44237000000E+00 0.34106000000E+00 0.25074000000E+00 0.19700000000E+00
 0.17282000000E+00 0.16499000000E+00 0.16925000000E+00 0.16929000000E+00 0.16501000000E+00
 0.17278000000E+00 0.19704000000E+00 0.25070000000E+00 0.34109000000E+00 0.44243000000E+00
 0.52190000000E+00 0.56834000000E+00 0.58759000000E+00 0.58758000000E+00 0.56835000000E+00
 0.60955000000E+00 0.56836000000E+00 0.48245000000E+00 0.36441000000E+00 0.25789000000E+00
 0.19699000000E+00 0.17135000000E+00 0.16208000000E+00 0.16118000000E+00 0.16205000000E+00
 0.17134000000E+00 0.19702000000E+00 0.25786000000E+00 0.36445000000E+00 0.48243000000E+00
 0.56834000000E+00 0.60957000000E+00 0.61922000000E+00 0.61882000000E+00 0.61922000000E+00
 0.60237000000E+00 0.61922000000E+00 0.58757000000E+00 0.49559000000E+00 0.36441000000E+00
 0.25075000000E+00 0.19095000000E+00 0.16645000000E+00 0.15505000000E+00 0.15517000000E+00
 0.16637000000E+00 0.19102000000E+00 0.25070000000E+00 0.36444000000E+00 0.49556000000E+00
 0.58759000000E+00 0.61922000000E+00 0.60237000000E+00 0.57312000000E+00 0.57313000000E+00
 0.48305000000E+00 0.57313000000E+00 0.61883000000E+00 0.58757000000E+00 0.48245000000E+00
 0.34106000000E+00 0.23197000000E+00 0.18086000000E+00 0.15797000000E+00 0.14806000000E+00
 0.15800000000E+00 0.18081000000E+00 0.23199000000E+00 0.34106000000E+00 0.48245000000E+00
 0.58758000000E+00 0.61882000000E+00 0.57312000000E+00 0.48307000000E+00 0.43477000000E+00
 0.30230000000E+00 0.43477000000E+00 0.57313000000E+00 0.61922000000E+00 0.56836000000E+00
 0.44237000000E+00 0.29941000000E+00 0.20797000000E+00 0.16908000000E+00 0.14829000000E+00
 0.14848000000E+00 0.16891000000E+00 0.20809000000E+00 0.29934000000E+00 0.44240000000E+00
 0.56835000000E+00 0.61922000000E+00 0.57313000000E+00 0.43477000000E+00 0.30229000000E+00
 0.31571000000E+00 0.38626000000E+00 0.52731000000E+00 0.61261000000E+00 0.60275000000E+00
 0.50735000000E+00 0.36315000000E+00 0.24301000000E+00 0.18360000000E+00 0.15726000000E+00
 0.14514000000E+00 0.15718000000E+00 0.18370000000E+00 0.24292000000E+00 0.36320000000E+00
 0.50733000000E+00 0.60275000000E+00 0.61261000000E+00 0.52731000000E+00 0.38625000000E+00
 0.38626000000E+00 0.38624000000E+00 0.49166000000E+00 0.59452000000E+00 0.61935000000E+00
 0.55769000000E+00 0.42853000000E+00 0.28956000000E+00 0.20445000000E+00 0.16750000000E+00
 0.14895000000E+00 0.14826000000E+00 0.16807000000E+00 0.20406000000E+00 0.28978000000E+00
 0.42843000000E+00 0.55773000000E+00 0.61933000000E+00 0.59452000000E+00 0.49165000000E+00
 0.52731000000E+00 0.49002000000E+00 0.52732000000E+00 0.59451000000E+00 0.62195000000E+00
 0.57985000000E+00 0.46988000000E+00 0.33047000000E+00 0.22693000000E+00 0.17885000000E+00
 0.15685000000E+00 0.14788000000E+00 0.15678000000E+00 0.17895000000E+00 0.22687000000E+00
 0.33050000000E+00 0.46986000000E+00 0.57985000000E+00 0.62195000000E+00 0.59452000000E+00
 0.61261000000E+00 0.59165000000E+00 0.59165000000E+00 0.61260000000E+00 0.61934000000E+00
 0.57986000000E+00 0.48368000000E+00 0.35375000000E+00 0.24500000000E+00 0.18861000000E+00
 0.16448000000E+00 0.15385000000E+00 0.15367000000E+00 0.16461000000E+00 0.18850000000E+00
 0.24507000000E+00 0.35371000000E+00 0.48371000000E+00 0.57984000000E+00 0.61935000000E+00
 0.60275000000E+00 0.61613000000E+00 0.61731000000E+00 0.61613000000E+00 0.60277000000E+00
 0.55770000000E+00 0.46986000000E+00 0.35375000000E+00 0.25198000000E+00 0.19444000000E+00
 0.16919000000E+00 0.15970000000E+00 0.15896000000E+00 0.15972000000E+00 0.16920000000E+00
 0.19442000000E+00 0.25201000000E+00 0.35372000000E+00 0.46989000000E+00 0.55770000000E+00
 0.50735000000E+00 0.55445000000E+00 0.57441000000E+00 0.57442000000E+00 0.55446000000E+00
 0.50731000000E+00 0.42852000000E+00 0.33048000000E+00 0.24501000000E+00 0.19448000000E+00
 0.17057000000E+00 0.16220000000E+00 0.16579000000E+00 0.16579000000E+00 0.16216000000E+00
 0.17062000000E+00 0.19443000000E+00 0.24503000000E+00 0.33044000000E+00 0.42851000000E+00
 0.36315000000E+00 0.42571000000E+00 0.46453000000E+00 0.47733000000E+00 0.46452000000E+00
 0.42569000000E+00 0.36324000000E+00 0.28962000000E+00 0.22690000000E+00 0.18856000000E+00
 0.16916000000E+00 0.16214000000E+00 0.16845000000E+00 0.17555000000E+00 0.16845000000E+00
 0.16213000000E+00 0.16920000000E+00 0.18855000000E+00 0.22698000000E+00 0.28962000000E+00
 0.24299000000E+00 0.28782000000E+00 0.32648000000E+00 0.34827000000E+00 0.34825000000E+00
 0.32652000000E+00 0.28785000000E+00 0.24283000000E+00 0.20433000000E+00 0.17892000000E+00
 0.16451000000E+00 0.15982000000E+00 0.16577000000E+00 0.17554000000E+00 0.17549000000E+00
 0.16589000000E+00 0.15968000000E+00 0.16458000000E+00 0.17875000000E+00 0.20438000000E+00
 0.18361000000E+00 0.20403000000E+00 0.22524000000E+00 0.24196000000E+00 0.24841000000E+00
 0.24197000000E+00 0.22520000000E+00 0.20395000000E+00 0.18385000000E+00 0.16769000000E+00
 0.15683000000E+00 0.15374000000E+00 0.15889000000E+00 0.16583000000E+00 0.16844000000E+00
 0.16576000000E+00 0.15896000000E+00 0.15375000000E+00 0.15699000000E+00 0.16761000000E+00
 0.15726000000E+00 0.16829000000E+00 0.17953000000E+00 0.18858000000E+00 0.19384000000E+00
 0.19388000000E+00 0.18857000000E+00 0.17954000000E+00 0.16851000000E+00 0.15695000000E+00
 0.14863000000E+00 0.14790000000E+00 0.15377000000E+00 0.15974000000E+00 0.16219000000E+00
 0.16219000000E+00 0.15973000000E+00 0.15373000000E+00 0.14772000000E+00 0.14879000000E+00
 0.14514000000E+00 0.15052000000E+00 0.15945000000E+00 0.16734000000E+00 0.17182000000E+00
 0.17303000000E+00 0.17176000000E+00 0.16743000000E+00 0.15942000000E+00 0.15019000000E+00
 0.14545000000E+00 0.14863000000E+00 0.15681000000E+00 0.16456000000E+00 0.16913000000E+00
 0.17058000000E+00 0.16917000000E+00 0.16457000000E+00 0.15697000000E+00 0.14841000000E+00
 0.15719000000E+00 0.14980000000E+00 0.15132000000E+00 0.15882000000E+00 0.16545000000E+00
 0.16810000000E+00 0.16808000000E+00 0.16547000000E+00 0.15875000000E+00 0.15132000000E+00
 0.15019000000E+00 0.15695000000E+00 0.16771000000E+00 0.17888000000E+00 0.18859000000E+00
 0.19447000000E+00 0.19446000000E+00 0.18855000000E+00 0.17880000000E+00 0.16794000000E+00
 0.18371000000E+00 0.16886000000E+00 0.15941000000E+00 0.15863000000E+00 0.16635000000E+00
 0.17468000000E+00 0.17794000000E+00 0.17479000000E+00 0.16624000000E+00 0.15872000000E+00
 0.15943000000E+00 0.16849000000E+00 0.18385000000E+00 0.20435000000E+00 0.22689000000E+00
 0.24500000000E+00 0.25198000000E+00 0.24502000000E+00 0.22696000000E+00 0.20416000000E+00
 0.24290000000E+00 0.20369000000E+00 0.17958000000E+00 0.16752000000E+00 0.16539000000E+00
 0.17489000000E+00 0.18681000000E+00 0.18689000000E+00 0.17472000000E+00 0.16557000000E+00
 0.16736000000E+00 0.17960000000E+00 0.20392000000E+00 0.24284000000E+00 0.28961000000E+00
 0.33050000000E+00 0.35374000000E+00 0.35374000000E+00 0.33045000000E+00 0.28974000000E+00
 0.36320000000E+00 0.28802000000E+00 0.22518000000E+00 0.18848000000E+00 0.17184000000E+00
 0.16800000000E+00 0.17793000000E+00 0.18692000000E+00 0.17792000000E+00 0.16804000000E+00
 0.17179000000E+00 0.18854000000E+00 0.22521000000E+00 0.28786000000E+00 0.36324000000E+00
 0.42851000000E+00 0.46987000000E+00 0.48369000000E+00 0.46988000000E+00 0.42846000000E+00
 0.50733000000E+00 0.42561000000E+00 0.32652000000E+00 0.24203000000E+00 0.19383000000E+00
 0.17309000000E+00 0.16807000000E+00 0.17471000000E+00 0.17479000000E+00 0.16806000000E+00
 0.17306000000E+00 0.19387000000E+00 0.24199000000E+00 0.32650000000E+00 0.42570000000E+00
 0.50731000000E+00 0.55770000000E+00 0.57986000000E+00 0.57985000000E+00 0.55772000000E+00
 0.60275000000E+00 0.55449000000E+00 0.46452000000E+00 0.34822000000E+00 0.24843000000E+00
 0.19382000000E+00 0.17181000000E+00 0.16551000000E+00 0.16627000000E+00 0.16547000000E+00
 0.17180000000E+00 0.19386000000E+00 0.24839000000E+00 0.34826000000E+00 0.46452000000E+00
 0.55446000000E+00 0.60277000000E+00 0.61934000000E+00 0.62195000000E+00 0.61933000000E+00
 0.61261000000E+00 0.61611000000E+00 0.57441000000E+00 0.47736000000E+00 0.34823000000E+00
 0.24201000000E+00 0.18854000000E+00 0.16738000000E+00 0.15876000000E+00 0.15873000000E+00
 0.16742000000E+00 0.18854000000E+00 0.24200000000E+00 0.34825000000E+00 0.47734000000E+00
 0.57442000000E+00 0.61613000000E+00 0.61260000000E+00 0.59451000000E+00 0.59453000000E+00
 0.52731000000E+00 0.59166000000E+00 0.61731000000E+00 0.57440000000E+00 0.46455000000E+00
 0.32645000000E+00 0.22528000000E+00 0.17946000000E+00 0.15958000000E+00 0.15113000000E+00
 0.15958000000E+00 0.17946000000E+00 0.22526000000E+00 0.32648000000E+00 0.46454000000E+00
 0.57441000000E+00 0.61731000000E+00 0.59165000000E+00 0.52732000000E+00 0.49165000000E+00
 0.38625000000E+00 0.49001000000E+00 0.59165000000E+00 0.61613000000E+00 0.55446000000E+00
 0.42570000000E+00 0.28786000000E+00 0.20394000000E+00 0.16842000000E+00 0.15037000000E+00
 0.14996000000E+00 0.16874000000E+00 0.20376000000E+00 0.28796000000E+00 0.42564000000E+00
 0.55448000000E+00 0.61612000000E+00 0.59166000000E+00 0.49001000000E+00 0.38625000000E+00
 0.51010000000E+00 0.54261000000E+00 0.60020000000E+00 0.61998000000E+00 0.57327000000E+00
 0.46164000000E+00 0.32407000000E+00 0.22419000000E+00 0.17830000000E+00 0.15773000000E+00
 0.14936000000E+00 0.15765000000E+00 0.17842000000E+00 0.22409000000E+00 0.32414000000E+00
 0.46161000000E+00 0.57328000000E+00 0.61998000000E+00 0.60020000000E+00 0.54260000000E+00
 0.54261000000E+00 0.54259000000E+00 0.58736000000E+00 0.62175000000E+00 0.60261000000E+00
 0.51718000000E+00 0.38466000000E+00 0.26200000000E+00 0.19441000000E+00 0.16496000000E+00
 0.15121000000E+00 0.15046000000E+00 0.16557000000E+00 0.19398000000E+00 0.26224000000E+00
 0.38454000000E+00 0.51723000000E+00 0.60259000000E+00 0.62176000000E+00 0.58735000000E+00
 0.60020000000E+00 0.58538000000E+00 0.60020000000E+00 0.62175000000E+00 0.61058000000E+00
 0.54383000000E+00 0.42537000000E+00 0.29709000000E+00 0.21204000000E+00 0.17383000000E+00
 0.15612000000E+00 0.15026000000E+00 0.15606000000E+00 0.17392000000E+00 0.21198000000E+00
 0.29712000000E+00 0.42536000000E+00 0.54384000000E+00 0.61058000000E+00 0.62175000000E+00
 0.61998000000E+00 0.61789000000E+00 0.61790000000E+00 0.61998000000E+00 0.60260000000E+00
 0.54384000000E+00 0.43948000000E+00 0.31773000000E+00 0.22674000000E+00 0.18152000000E+00
 0.16155000000E+00 0.15426000000E+00 0.15420000000E+00 0.16158000000E+00 0.18148000000E+00
 0.22677000000E+00 0.31771000000E+00 0.43949000000E+00 0.54382000000E+00 0.60262000000E+00
 0.57327000000E+00 0.59771000000E+00 0.60359000000E+00 0.59770000000E+00 0.57328000000E+00
 0.51719000000E+00 0.42538000000E+00 0.31773000000E+00 0.23248000000E+00 0.18633000000E+00
 0.16500000000E+00 0.15798000000E+00 0.15882000000E+00 0.15802000000E+00 0.16500000000E+00
 0.18632000000E+00 0.23250000000E+00 0.31772000000E+00 0.42540000000E+00 0.51718000000E+00
 0.46164000000E+00 0.51197000000E+00 0.53512000000E+00 0.53512000000E+00 0.51198000000E+00
 0.46162000000E+00 0.38462000000E+00 0.29707000000E+00 0.22674000000E+00 0.18637000000E+00
 0.16608000000E+00 0.15929000000E+00 0.16373000000E+00 0.16374000000E+00 0.15925000000E+00
 0.16612000000E+00 0.18632000000E+00 0.22675000000E+00 0.29704000000E+00 0.38465000000E+00
 0.32407000000E+00 0.38025000000E+00 0.41689000000E+00 0.42934000000E+00 0.41689000000E+00
 0.38020000000E+00 0.32412000000E+00 0.26210000000E+00 0.21208000000E+00 0.18149000000E+00
 0.16498000000E+00 0.15924000000E+00 0.16535000000E+00 0.17151000000E+00 0.16535000000E+00
 0.15924000000E+00 0.16501000000E+00 0.18151000000E+00 0.21213000000E+00 0.26203000000E+00
 0.22417000000E+00 0.25953000000E+00 0.29119000000E+00 0.30948000000E+00 0.30946000000E+00
 0.29121000000E+00 0.25961000000E+00 0.22410000000E+00 0.19423000000E+00 0.17379000000E+00
 0.16154000000E+00 0.15809000000E+00 0.16371000000E+00 0.17149000000E+00 0.17145000000E+00
 0.16380000000E+00 0.15796000000E+00 0.16158000000E+00 0.17368000000E+00 0.19437000000E+00
 0.17831000000E+00 0.19417000000E+00 0.21013000000E+00 0.22291000000E+00 0.22785000000E+00
 0.22291000000E+00 0.21015000000E+00 0.19403000000E+00 0.17840000000E+00 0.16522000000E+00
 0.15625000000E+00 0.15420000000E+00 0.15877000000E+00 0.16377000000E+00 0.16534000000E+00
 0.16372000000E+00 0.15884000000E+00 0.15425000000E+00 0.15633000000E+00 0.16500000000E+00
 0.15774000000E+00 0.16673000000E+00 0.17586000000E+00 0.18282000000E+00 0.18692000000E+00
 0.18696000000E+00 0.18282000000E+00 0.17577000000E+00 0.16702000000E+00 0.15765000000E+00
 0.15085000000E+00 0.15011000000E+00 0.15424000000E+00 0.15801000000E+00 0.15929000000E+00
 0.15926000000E+00 0.15801000000E+00 0.15418000000E+00 0.15003000000E+00 0.15114000000E+00
 0.14936000000E+00 0.15441000000E+00 0.16156000000E+00 0.16785000000E+00 0.17120000000E+00
 0.17208000000E+00 0.17114000000E+00 0.16790000000E+00 0.16167000000E+00 0.15403000000E+00
 0.14941000000E+00 0.15084000000E+00 0.15623000000E+00 0.16160000000E+00 0.16494000000E+00
 0.16609000000E+00 0.16499000000E+00 0.16161000000E+00 0.15629000000E+00 0.15052000000E+00
 0.15766000000E+00 0.15364000000E+00 0.15734000000E+00 0.16464000000E+00 0.17007000000E+00
 0.17177000000E+00 0.17175000000E+00 0.17007000000E+00 0.16463000000E+00 0.15718000000E+00
 0.15404000000E+00 0.15765000000E+00 0.16523000000E+00 0.17375000000E+00 0.18152000000E+00
 0.18635000000E+00 0.18634000000E+00 0.18148000000E+00 0.17373000000E+00 0.16551000000E+00
 0.17843000000E+00 0.16734000000E+00 0.16152000000E+00 0.16455000000E+00 0.17418000000E+00
 0.18220000000E+00 0.18491000000E+00 0.18233000000E+00 0.17408000000E+00 0.16459000000E+00
 0.16169000000E+00 0.16699000000E+00 0.17840000000E+00 0.19424000000E+00 0.21207000000E+00
 0.22674000000E+00 0.23248000000E+00 0.22675000000E+00 0.21210000000E+00 0.19403000000E+00
 0.22406000000E+00 0.19379000000E+00 0.17590000000E+00 0.16794000000E+00 0.17000000000E+00
 0.18243000000E+00 0.19457000000E+00 0.19465000000E+00 0.18224000000E+00 0.17019000000E+00
 0.16782000000E+00 0.17583000000E+00 0.19399000000E+00 0.22411000000E+00 0.26209000000E+00
 0.29708000000E+00 0.31772000000E+00 0.31773000000E+00 0.29705000000E+00 0.26223000000E+00
 0.32414000000E+00 0.25975000000E+00 0.21007000000E+00 0.18278000000E+00 0.17121000000E+00
 0.17167000000E+00 0.18490000000E+00 0.19470000000E+00 0.18489000000E+00 0.17171000000E+00
 0.17117000000E+00 0.18280000000E+00 0.21016000000E+00 0.25961000000E+00 0.32412000000E+00
 0.38461000000E+00 0.42538000000E+00 0.43948000000E+00 0.42538000000E+00 0.38455000000E+00
 0.46162000000E+00 0.38013000000E+00 0.29124000000E+00 0.22294000000E+00 0.18692000000E+00
 0.17214000000E+00 0.17175000000E+00 0.18219000000E+00 0.18235000000E+00 0.17171000000E+00
 0.17213000000E+00 0.18693000000E+00 0.22293000000E+00 0.29118000000E+00 0.38022000000E+00
 0.46162000000E+00 0.51719000000E+00 0.54383000000E+00 0.54383000000E+00 0.51722000000E+00
 0.57328000000E+00 0.51202000000E+00 0.41687000000E+00 0.30945000000E+00 0.22787000000E+00
 0.18690000000E+00 0.17118000000E+00 0.17013000000E+00 0.17410000000E+00 0.17008000000E+00
 0.17118000000E+00 0.18693000000E+00 0.22784000000E+00 0.30948000000E+00 0.41689000000E+00
 0.51199000000E+00 0.57328000000E+00 0.60261000000E+00 0.61058000000E+00 0.60259000000E+00
 0.61998000000E+00 0.59768000000E+00 0.53513000000E+00 0.42935000000E+00 0.30946000000E+00
 0.22294000000E+00 0.18282000000E+00 0.16780000000E+00 0.16467000000E+00 0.16457000000E+00
 0.16790000000E+00 0.18279000000E+00 0.22294000000E+00 0.30946000000E+00 0.42935000000E+00
 0.53512000000E+00 0.59770000000E+00 0.61998000000E+00 0.62175000000E+00 0.62176000000E+00
 0.60020000000E+00 0.61791000000E+00 0.60360000000E+00 0.53510000000E+00 0.41691000000E+00
 0.29115000000E+00 0.21021000000E+00 0.17575000000E+00 0.16175000000E+00 0.15708000000E+00
 0.16175000000E+00 0.17575000000E+00 0.21017000000E+00 0.29119000000E+00 0.41689000000E+00
 0.53511000000E+00 0.60360000000E+00 0.61790000000E+00 0.60021000000E+00 0.58734000000E+00
 0.54260000000E+00 0.58537000000E+00 0.61790000000E+00 0.59771000000E+00 0.51197000000E+00
 0.38025000000E+00 0.25955000000E+00 0.19412000000E+00 0.16680000000E+00 0.15435000000E+00
 0.15370000000E+00 0.16730000000E+00 0.19381000000E+00 0.25972000000E+00 0.38015000000E+00
 0.51202000000E+00 0.59768000000E+00 0.61791000000E+00 0.58537000000E+00 0.54261000000E+00
 0.61301000000E+00 0.61746000000E+00 0.61682000000E+00 0.58466000000E+00 0.50437000000E+00
 0.38533000000E+00 0.27079000000E+00 0.20179000000E+00 0.17164000000E+00 0.15912000000E+00
 0.15619000000E+00 0.15906000000E+00 0.17172000000E+00 0.20171000000E+00 0.27084000000E+00
 0.38530000000E+00 0.50438000000E+00 0.58465000000E+00 0.61683000000E+00 0.61745000000E+00
 0.61746000000E+00 0.61745000000E+00 0.61983000000E+00 0.60285000000E+00 0.54446000000E+00
 0.44024000000E+00 0.31839000000E+00 0.22698000000E+00 0.18200000000E+00 0.16204000000E+00
 0.15529000000E+00 0.15482000000E+00 0.16243000000E+00 0.18171000000E+00 0.22716000000E+00
 0.31829000000E+00 0.44028000000E+00 0.54443000000E+00 0.60287000000E+00 0.61982000000E+00
 0.61682000000E+00 0.61823000000E+00 0.61682000000E+00 0.60286000000E+00 0.55710000000E+00
 0.46892000000E+00 0.35306000000E+00 0.25167000000E+00 0.19349000000E+00 0.16718000000E+00
 0.15616000000E+00 0.15469000000E+00 0.15612000000E+00 0.16724000000E+00 0.19346000000E+00
 0.25168000000E+00 0.35305000000E+00 0.46893000000E+00 0.55710000000E+00 0.60286000000E+00
 0.58466000000E+00 0.59928000000E+00 0.59929000000E+00 0.58465000000E+00 0.54445000000E+00
 0.46892000000E+00 0.36564000000E+00 0.26675000000E+00 0.20331000000E+00 0.17213000000E+00
 0.15822000000E+00 0.15610000000E+00 0.15618000000E+00 0.15814000000E+00 0.17216000000E+00
 0.20328000000E+00 0.26677000000E+00 0.36563000000E+00 0.46891000000E+00 0.54446000000E+00
 0.50436000000E+00 0.53942000000E+00 0.55000000000E+00 0.53941000000E+00 0.50437000000E+00
 0.44025000000E+00 0.35307000000E+00 0.26678000000E+00 0.20713000000E+00 0.17549000000E+00
 0.15983000000E+00 0.15698000000E+00 0.15978000000E+00 0.15703000000E+00 0.15982000000E+00
 0.17549000000E+00 0.20715000000E+00 0.26676000000E+00 0.35309000000E+00 0.44023000000E+00
 0.38533000000E+00 0.43478000000E+00 0.45976000000E+00 0.45976000000E+00 0.43480000000E+00
 0.38533000000E+00 0.31835000000E+00 0.25161000000E+00 0.20330000000E+00 0.17551000000E+00
 0.16047000000E+00 0.15679000000E+00 0.16215000000E+00 0.16213000000E+00 0.15676000000E+00
 0.16050000000E+00 0.17547000000E+00 0.20330000000E+00 0.25160000000E+00 0.31838000000E+00
 0.27079000000E+00 0.31401000000E+00 0.34443000000E+00 0.35524000000E+00 0.34445000000E+00
 0.31396000000E+00 0.27080000000E+00 0.22708000000E+00 0.19356000000E+00 0.17213000000E+00
 0.15983000000E+00 0.15674000000E+00 0.16247000000E+00 0.16699000000E+00 0.16247000000E+00
 0.15676000000E+00 0.15985000000E+00 0.17213000000E+00 0.19358000000E+00 0.22700000000E+00
 0.20176000000E+00 0.22493000000E+00 0.24630000000E+00 0.25903000000E+00 0.25902000000E+00
 0.24629000000E+00 0.22499000000E+00 0.20175000000E+00 0.18186000000E+00 0.16712000000E+00
 0.15817000000E+00 0.15705000000E+00 0.16212000000E+00 0.16696000000E+00 0.16692000000E+00
 0.16220000000E+00 0.15694000000E+00 0.15822000000E+00 0.16704000000E+00 0.18200000000E+00
 0.17165000000E+00 0.18245000000E+00 0.19276000000E+00 0.20092000000E+00 0.20403000000E+00
 0.20090000000E+00 0.19280000000E+00 0.18236000000E+00 0.17164000000E+00 0.16221000000E+00
 0.15632000000E+00 0.15611000000E+00 0.15978000000E+00 0.16219000000E+00 0.16246000000E+00
 0.16215000000E+00 0.15983000000E+00 0.15612000000E+00 0.15634000000E+00 0.16202000000E+00
 0.15913000000E+00 0.16493000000E+00 0.17106000000E+00 0.17578000000E+00 0.17870000000E+00
 0.17873000000E+00 0.17582000000E+00 0.17093000000E+00 0.16514000000E+00 0.15916000000E+00
 0.15506000000E+00 0.15452000000E+00 0.15615000000E+00 0.15696000000E+00 0.15679000000E+00
 0.15675000000E+00 0.15699000000E+00 0.15612000000E+00 0.15451000000E+00 0.15529000000E+00
 0.15618000000E+00 0.16032000000E+00 0.16475000000E+00 0.16842000000E+00 0.17029000000E+00
 0.17083000000E+00 0.17025000000E+00 0.16845000000E+00 0.16488000000E+00 0.16007000000E+00
 0.15610000000E+00 0.15505000000E+00 0.15630000000E+00 0.15823000000E+00 0.15980000000E+00
 0.16049000000E+00 0.15984000000E+00 0.15820000000E+00 0.15631000000E+00 0.15481000000E+00
 0.15907000000E+00 0.15982000000E+00 0.16592000000E+00 0.17253000000E+00 0.17606000000E+00
 0.17652000000E+00 0.17651000000E+00 0.17600000000E+00 0.17259000000E+00 0.16574000000E+00
 0.16007000000E+00 0.15917000000E+00 0.16223000000E+00 0.16707000000E+00 0.17216000000E+00
 0.17549000000E+00 0.17549000000E+00 0.17214000000E+00 0.16709000000E+00 0.16241000000E+00
 0.17174000000E+00 0.16531000000E+00 0.16475000000E+00 0.17257000000E+00 0.18381000000E+00
 0.19056000000E+00 0.19227000000E+00 0.19070000000E+00 0.18375000000E+00 0.17254000000E+00
 0.16491000000E+00 0.16510000000E+00 0.17165000000E+00 0.18188000000E+00 0.19355000000E+00
 0.20329000000E+00 0.20715000000E+00 0.20329000000E+00 0.19356000000E+00 0.18172000000E+00
 0.20168000000E+00 0.18222000000E+00 0.17106000000E+00 0.16842000000E+00 0.17599000000E+00
 0.19079000000E+00 0.20142000000E+00 0.20150000000E+00 0.19059000000E+00 0.17615000000E+00
 0.16834000000E+00 0.17101000000E+00 0.18231000000E+00 0.20177000000E+00 0.22706000000E+00
 0.25163000000E+00 0.26675000000E+00 0.26679000000E+00 0.25161000000E+00 0.22717000000E+00
 0.27085000000E+00 0.22508000000E+00 0.19273000000E+00 0.17581000000E+00 0.17029000000E+00
 0.17642000000E+00 0.19226000000E+00 0.20157000000E+00 0.19225000000E+00 0.17646000000E+00
 0.17029000000E+00 0.17578000000E+00 0.19281000000E+00 0.22499000000E+00 0.27080000000E+00
 0.31834000000E+00 0.35308000000E+00 0.36563000000E+00 0.35308000000E+00 0.31829000000E+00
 0.38531000000E+00 0.31392000000E+00 0.24634000000E+00 0.20089000000E+00 0.17871000000E+00
 0.17087000000E+00 0.17653000000E+00 0.19051000000E+00 0.19073000000E+00 0.17645000000E+00
 0.17089000000E+00 0.17869000000E+00 0.20093000000E+00 0.24626000000E+00 0.31398000000E+00
 0.38532000000E+00 0.44025000000E+00 0.46891000000E+00 0.46892000000E+00 0.44027000000E+00
 0.50438000000E+00 0.43483000000E+00 0.34441000000E+00 0.25903000000E+00 0.20404000000E+00
 0.17867000000E+00 0.17028000000E+00 0.17612000000E+00 0.18374000000E+00 0.17605000000E+00
 0.17028000000E+00 0.17870000000E+00 0.20402000000E+00 0.25903000000E+00 0.34444000000E+00
 0.43480000000E+00 0.50437000000E+00 0.54445000000E+00 0.55710000000E+00 0.54443000000E+00
 0.58465000000E+00 0.53940000000E+00 0.45977000000E+00 0.35524000000E+00 0.25902000000E+00
 0.20093000000E+00 0.17581000000E+00 0.16834000000E+00 0.17260000000E+00 0.17256000000E+00
 0.16840000000E+00 0.17580000000E+00 0.20092000000E+00 0.25902000000E+00 0.35524000000E+00
 0.45976000000E+00 0.53941000000E+00 0.58466000000E+00 0.60286000000E+00 0.60287000000E+00
 0.61683000000E+00 0.59930000000E+00 0.55000000000E+00 0.45975000000E+00 0.34445000000E+00
 0.24625000000E+00 0.19283000000E+00 0.17098000000E+00 0.16491000000E+00 0.16570000000E+00
 0.16491000000E+00 0.17096000000E+00 0.19280000000E+00 0.24629000000E+00 0.34444000000E+00
 0.45976000000E+00 0.55001000000E+00 0.59929000000E+00 0.61683000000E+00 0.61982000000E+00
 0.61745000000E+00 0.61822000000E+00 0.59929000000E+00 0.53942000000E+00 0.43478000000E+00
 0.31402000000E+00 0.22492000000E+00 0.18243000000E+00 0.16495000000E+00 0.16033000000E+00
 0.15981000000E+00 0.16533000000E+00 0.18220000000E+00 0.22507000000E+00 0.31393000000E+00
 0.43483000000E+00 0.53940000000E+00 0.59930000000E+00 0.61822000000E+00 0.61746000000E+00
 0.58752000000E+00 0.57904000000E+00 0.54862000000E+00 0.48717000000E+00 0.39510000000E+00
 0.29486000000E+00 0.22068000000E+00 0.18231000000E+00 0.16509000000E+00 0.16199000000E+00