unknown system                          
   1.0000000000000000     
     1.455566   -2.521114    0.000000
     1.455566    2.521114    0.000000
     0.000000    0.000000    9.463709
   Ag
     4
Direct
  0.000000  0.000000  0.000000
  0.000000  0.000000  0.500000
  0.333333  0.666667  0.250000
  0.666667  0.333333  0.750000

   20   20   60
 0.22010     0.30230     0.48305     0.60237     0.60955     0.52194     0.37722     0.25038     0.18574     0.15717    
 0.14373     0.15717     0.18574     0.25038     0.37722     0.52194     0.60955     0.60237     0.48305     0.30230    
 0.30230     0.30229     0.43477     0.57313     0.61922     0.56835     0.44240     0.29934     0.20809     0.16891    
 0.14848     0.14829     0.16908     0.20797     0.29941     0.44237     0.56836     0.61922     0.57313     0.43477    
 0.48305     0.43477     0.48307     0.57312     0.61882     0.58758     0.48245     0.34106     0.23199     0.18081    
 0.15800     0.14806     0.15797     0.18086     0.23197     0.34106     0.48245     0.58757     0.61883     0.57313    
 0.60237     0.57313     0.57312     0.60237     0.61922     0.58759     0.49556     0.36444     0.25070     0.19102    
 0.16637     0.15517     0.15505     0.16645     0.19095     0.25075     0.36441     0.49559     0.58757     0.61922    
 0.60955     0.61922     0.61882     0.61922     0.60957     0.56834     0.48243     0.36445     0.25786     0.19702    
 0.17134     0.16205     0.16118     0.16208     0.17135     0.19699     0.25789     0.36441     0.48245     0.56836    
 0.52194     0.56835     0.58758     0.58759     0.56834     0.52190     0.44243     0.34109     0.25070     0.19704    
 0.17278     0.16501     0.16929     0.16925     0.16499     0.17282     0.19700     0.25074     0.34106     0.44237    
 0.37722     0.44240     0.48245     0.49556     0.48243     0.44242     0.37731     0.29931     0.23192     0.19100    
 0.17132     0.16497     0.17252     0.18057     0.17252     0.16495     0.17136     0.19094     0.23197     0.29941    
 0.25036     0.29936     0.34104     0.36446     0.36444     0.34110     0.29930     0.25020     0.20812     0.18096    
 0.16637     0.16216     0.16924     0.18054     0.18048     0.16939     0.16200     0.16651     0.18083     0.20799    
 0.18575     0.20808     0.23199     0.25069     0.25787     0.25069     0.23191     0.20814     0.18603     0.16888    
 0.15786     0.15509     0.16114     0.16931     0.17252     0.16921     0.16122     0.15502     0.15799     0.16906    
 0.15717     0.16890     0.18082     0.19102     0.19702     0.19705     0.19102     0.18092     0.16889     0.15678    
 0.14842     0.14823     0.15512     0.16207     0.16501     0.16503     0.16205     0.15516     0.14807     0.14828    
 0.14372     0.14849     0.15800     0.16637     0.17134     0.17277     0.17129     0.16642     0.15784     0.14842    
 0.14416     0.14842     0.15784     0.16642     0.17129     0.17277     0.17134     0.16637     0.15800     0.14849    
 0.15717     0.14828     0.14807     0.15516     0.16205     0.16503     0.16501     0.16207     0.15512     0.14823    
 0.14842     0.15678     0.16889     0.18092     0.19102     0.19705     0.19702     0.19102     0.18082     0.16890    
 0.18575     0.16906     0.15799     0.15502     0.16122     0.16921     0.17252     0.16931     0.16114     0.15509    
 0.15786     0.16888     0.18603     0.20814     0.23191     0.25069     0.25787     0.25069     0.23199     0.20808    
 0.25036     0.20799     0.18083     0.16651     0.16200     0.16939     0.18048     0.18054     0.16924     0.16216    
 0.16637     0.18096     0.20812     0.25020     0.29930     0.34110     0.36444     0.36446     0.34104     0.29936    
 0.37722     0.29941     0.23197     0.19094     0.17136     0.16495     0.17252     0.18057     0.17252     0.16497    
 0.17132     0.19100     0.23192     0.29931     0.37731     0.44242     0.48243     0.49556     0.48245     0.44240    
 0.52194     0.44237     0.34106     0.25074     0.19700     0.17282     0.16499     0.16925     0.16929     0.16501    
 0.17278     0.19704     0.25070     0.34109     0.44243     0.52190     0.56834     0.58759     0.58758     0.56835    
 0.60955     0.56836     0.48245     0.36441     0.25789     0.19699     0.17135     0.16208     0.16118     0.16205    
 0.17134     0.19702     0.25786     0.36445     0.48243     0.56834     0.60957     0.61922     0.61882     0.61922    
 0.60237     0.61922     0.58757     0.49559     0.36441     0.25075     0.19095     0.16645     0.15505     0.15517    
 0.16637     0.19102     0.25070     0.36444     0.49556     0.58759     0.61922     0.60237     0.57312     0.57313    
 0.48305     0.57313     0.61883     0.58757     0.48245     0.34106     0.23197     0.18086     0.15797     0.14806    
 0.15800     0.18081     0.23199     0.34106     0.48245     0.58758     0.61882     0.57312     0.48307     0.43477    
 0.30230     0.43477     0.57313     0.61922     0.56836     0.44237     0.29941     0.20797     0.16908     0.14829    
 0.14848     0.16891     0.20809     0.29934     0.44240     0.56835     0.61922     0.57313     0.43477     0.30229    
 0.31571     0.38626     0.52731     0.61261     0.60275     0.50735     0.36315     0.24301     0.18360     0.15726    
 0.14514     0.15718     0.18370     0.24292     0.36320     0.50733     0.60275     0.61261     0.52731     0.38625    
 0.38626     0.38624     0.49166     0.59452     0.61935     0.55769     0.42853     0.28956     0.20445     0.16750    
 0.14895     0.14826     0.16807     0.20406     0.28978     0.42843     0.55773     0.61933     0.59452     0.49165    
 0.52731     0.49002     0.52732     0.59451     0.62195     0.57985     0.46988     0.33047     0.22693     0.17885    
 0.15685     0.14788     0.15678     0.17895     0.22687     0.33050     0.46986     0.57985     0.62195     0.59452    
 0.61261     0.59165     0.59165     0.61260     0.61934     0.57986     0.48368     0.35375     0.24500     0.18861    
 0.16448     0.15385     0.15367     0.16461     0.18850     0.24507     0.35371     0.48371     0.57984     0.61935    
 0.60275     0.61613     0.61731     0.61613     0.60277     0.55770     0.46986     0.35375     0.25198     0.19444    
 0.16919     0.15970     0.15896     0.15972     0.16920     0.19442     0.25201     0.35372     0.46989     0.55770    
 0.50735     0.55445     0.57441     0.57442     0.55446     0.50731     0.42852     0.33048     0.24501     0.19448    
 0.17057     0.16220     0.16579     0.16579     0.16216     0.17062     0.19443     0.24503     0.33044     0.42851    
 0.36315     0.42571     0.46453     0.47733     0.46452     0.42569     0.36324     0.28962     0.22690     0.18856    
 0.16916     0.16214     0.16845     0.17555     0.16845     0.16213     0.16920     0.18855     0.22698     0.28962    
 0.24299     0.28782     0.32648     0.34827     0.34825     0.32652     0.28785     0.24283     0.20433     0.17892    
 0.16451     0.15982     0.16577     0.17554     0.17549     0.16589     0.15968     0.16458     0.17875     0.20438    
 0.18361     0.20403     0.22524     0.24196     0.24841     0.24197     0.22520     0.20395     0.18385     0.16769    
 0.15683     0.15374     0.15889     0.16583     0.16844     0.16576     0.15896     0.15375     0.15699     0.16761    
 0.15726     0.16829     0.17953     0.18858     0.19384     0.19388     0.18857     0.17954     0.16851     0.15695    
 0.14863     0.14790     0.15377     0.15974     0.16219     0.16219     0.15973     0.15373     0.14772     0.14879    
 0.14514     0.15052     0.15945     0.16734     0.17182     0.17303     0.17176     0.16743     0.15942     0.15019    
 0.14545     0.14863     0.15681     0.16456     0.16913     0.17058     0.16917     0.16457     0.15697     0.14841    
 0.15719     0.14980     0.15132     0.15882     0.16545     0.16810     0.16808     0.16547     0.15875     0.15132    
 0.15019     0.15695     0.16771     0.17888     0.18859     0.19447     0.19446     0.18855     0.17880     0.16794    
 0.18371     0.16886     0.15941     0.15863     0.16635     0.17468     0.17794     0.17479     0.16624     0.15872    
 0.15943     0.16849     0.18385     0.20435     0.22689     0.24500     0.25198     0.24502     0.22696     0.20416    
 0.24290     0.20369     0.17958     0.16752     0.16539     0.17489     0.18681     0.18689     0.17472     0.16557    
 0.16736     0.17960     0.20392     0.24284     0.28961     0.33050     0.35374     0.35374     0.33045     0.28974    
 0.36320     0.28802     0.22518     0.18848     0.17184     0.16800     0.17793     0.18692     0.17792     0.16804    
 0.17179     0.18854     0.22521     0.28786     0.36324     0.42851     0.46987     0.48369     0.46988     0.42846    
 0.50733     0.42561     0.32652     0.24203     0.19383     0.17309     0.16807     0.17471     0.17479     0.16806    
 0.17306     0.19387     0.24199     0.32650     0.42570     0.50731     0.55770     0.57986     0.57985     0.55772    
 0.60275     0.55449     0.46452     0.34822     0.24843     0.19382     0.17181     0.16551     0.16627     0.16547    
 0.17180     0.19386     0.24839     0.34826     0.46452     0.55446     0.60277     0.61934     0.62195     0.61933    
 0.61261     0.61611     0.57441     0.47736     0.34823     0.24201     0.18854     0.16738     0.15876     0.15873    
 0.16742     0.18854     0.24200     0.34825     0.47734     0.57442     0.61613     0.61260     0.59451     0.59453    
 0.52731     0.59166     0.61731     0.57440     0.46455     0.32645     0.22528     0.17946     0.15958     0.15113    
 0.15958     0.17946     0.22526     0.32648     0.46454     0.57441     0.61731     0.59165     0.52732     0.49165    
 0.38625     0.49001     0.59165     0.61613     0.55446     0.42570     0.28786     0.20394     0.16842     0.15037    
 0.14996     0.16874     0.20376     0.28796     0.42564     0.55448     0.61612     0.59166     0.49001     0.38625    
 0.51010     0.54261     0.60020     0.61998     0.57327     0.46164     0.32407     0.22419     0.17830     0.15773    
 0.14936     0.15765     0.17842     0.22409     0.32414     0.46161     0.57328     0.61998     0.60020     0.54260    
 0.54261     0.54259     0.58736     0.62175     0.60261     0.51718     0.38466     0.26200     0.19441     0.16496    
 0.15121     0.15046     0.16557     0.19398     0.26224     0.38454     0.51723     0.60259     0.62176     0.58735    
 0.60020     0.58538     0.60020     0.62175     0.61058     0.54383     0.42537     0.29709     0.21204     0.17383    
 0.15612     0.15026     0.15606     0.17392     0.21198     0.29712     0.42536     0.54384     0.61058     0.62175    
 0.61998     0.61789     0.61790     0.61998     0.60260     0.54384     0.43948     0.31773     0.22674     0.18152    
 0.16155     0.15426     0.15420     0.16158     0.18148     0.22677     0.31771     0.43949     0.54382     0.60262    
 0.57327     0.59771     0.60359     0.59770     0.57328     0.51719     0.42538     0.31773     0.23248     0.18633    
 0.16500     0.15798     0.15882     0.15802     0.16500     0.18632     0.23250     0.31772     0.42540     0.51718    
 0.46164     0.51197     0.53512     0.53512     0.51198     0.46162     0.38462     0.29707     0.22674     0.18637    
 0.16608     0.15929     0.16373     0.16374     0.15925     0.16612     0.18632     0.22675     0.29704     0.38465    
 0.32407     0.38025     0.41689     0.42934     0.41689     0.38020     0.32412     0.26210     0.21208     0.18149    
 0.16498     0.15924     0.16535     0.17151     0.16535     0.15924     0.16501     0.18151     0.21213     0.26203    
 0.22417     0.25953     0.29119     0.30948     0.30946     0.29121     0.25961     0.22410     0.19423     0.17379    
 0.16154     0.15809     0.16371     0.17149     0.17145     0.16380     0.15796     0.16158     0.17368     0.19437    
 0.17831     0.19417     0.21013     0.22291     0.22785     0.22291     0.21015     0.19403     0.17840     0.16522    
 0.15625     0.15420     0.15877     0.16377     0.16534     0.16372     0.15884     0.15425     0.15633     0.16500    
 0.15774     0.16673     0.17586     0.18282     0.18692     0.18696     0.18282     0.17577     0.16702     0.15765    
 0.15085     0.15011     0.15424     0.15801     0.15929     0.15926     0.15801     0.15418     0.15003     0.15114    
 0.14936     0.15441     0.16156     0.16785     0.17120     0.17208     0.17114     0.16790     0.16167     0.15403    
 0.14941     0.15084     0.15623     0.16160     0.16494     0.16609     0.16499     0.16161     0.15629     0.15052    
 0.15766     0.15364     0.15734     0.16464     0.17007     0.17177     0.17175     0.17007     0.16463     0.15718    
 0.15404     0.15765     0.16523     0.17375     0.18152     0.18635     0.18634     0.18148     0.17373     0.16551    
 0.17843     0.16734     0.16152     0.16455     0.17418     0.18220     0.18491     0.18233     0.17408     0.16459    
 0.16169     0.16699     0.17840     0.19424     0.21207     0.22674     0.23248     0.22675     0.21210     0.19403    
 0.22406     0.19379     0.17590     0.16794     0.17000     0.18243     0.19457     0.19465     0.18224     0.17019    
 0.16782     0.17583     0.19399     0.22411     0.26209     0.29708     0.31772     0.31773     0.29705     0.26223    
 0.32414     0.25975     0.21007     0.18278     0.17121     0.17167     0.18490     0.19470     0.18489     0.17171    
 0.17117     0.18280     0.21016     0.25961     0.32412     0.38461     0.42538     0.43948     0.42538     0.38455    
 0.46162     0.38013     0.29124     0.22294     0.18692     0.17214     0.17175     0.18219     0.18235     0.17171    
 0.17213     0.18693     0.22293     0.29118     0.38022     0.46162     0.51719     0.54383     0.54383     0.51722    
 0.57328     0.51202     0.41687     0.30945     0.22787     0.18690     0.17118     0.17013     0.17410     0.17008    
 0.17118     0.18693     0.22784     0.30948     0.41689     0.51199     0.57328     0.60261     0.61058     0.60259    
 0.61998     0.59768     0.53513     0.42935     0.30946     0.22294     0.18282     0.16780     0.16467     0.16457    
 0.16790     0.18279     0.22294     0.30946     0.42935     0.53512     0.59770     0.61998     0.62175     0.62176    
 0.60020     0.61791     0.60360     0.53510     0.41691     0.29115     0.21021     0.17575     0.16175     0.15708    
 0.16175     0.17575     0.21017     0.29119     0.41689     0.53511     0.60360     0.61790     0.60021     0.58734    
 0.54260     0.58537     0.61790     0.59771     0.51197     0.38025     0.25955     0.19412     0.16680     0.15435    
 0.15370     0.16730     0.19381     0.25972     0.38015     0.51202     0.59768     0.61791     0.58537     0.54261    
 0.61301     0.61746     0.61682     0.58466     0.50437     0.38533     0.27079     0.20179     0.17164     0.15912    
 0.15619     0.15906     0.17172     0.20171     0.27084     0.38530     0.50438     0.58465     0.61683     0.61745    
 0.61746     0.61745     0.61983     0.60285     0.54446     0.44024     0.31839     0.22698     0.18200     0.16204    
 0.15529     0.15482     0.16243     0.18171     0.22716     0.31829     0.44028     0.54443     0.60287     0.61982    
 0.61682     0.61823     0.61682     0.60286     0.55710     0.46892     0.35306     0.25167     0.19349     0.16718    
 0.15616     0.15469     0.15612     0.16724     0.19346     0.25168     0.35305     0.46893     0.55710     0.60286    
 0.58466     0.59928     0.59929     0.58465     0.54445     0.46892     0.36564     0.26675     0.20331     0.17213    
 0.15822     0.15610     0.15618     0.15814     0.17216     0.20328     0.26677     0.36563     0.46891     0.54446    
 0.50436     0.53942     0.55000     0.53941     0.50437     0.44025     0.35307     0.26678     0.20713     0.17549    
 0.15983     0.15698     0.15978     0.15703     0.15982     0.17549     0.20715     0.26676     0.35309     0.44023    
 0.38533     0.43478     0.45976     0.45976     0.43480     0.38533     0.31835     0.25161     0.20330     0.17551    
 0.16047     0.15679     0.16215     0.16213     0.15676     0.16050     0.17547     0.20330     0.25160     0.31838    
 0.27079     0.31401     0.34443     0.35524     0.34445     0.31396     0.27080     0.22708     0.19356     0.17213    
 0.15983     0.15674     0.16247     0.16699     0.16247     0.15676     0.15985     0.17213     0.19358     0.22700    
 0.20176     0.22493     0.24630     0.25903     0.25902     0.24629     0.22499     0.20175     0.18186     0.16712    
 0.15817     0.15705     0.16212     0.16696     0.16692     0.16220     0.15694     0.15822     0.16704     0.18200    
 0.17165     0.18245     0.19276     0.20092     0.20403     0.20090     0.19280     0.18236     0.17164     0.16221    
 0.15632     0.15611     0.15978     0.16219     0.16246     0.16215     0.15983     0.15612     0.15634     0.16202    
 0.15913     0.16493     0.17106     0.17578     0.17870     0.17873     0.17582     0.17093     0.16514     0.15916    
 0.15506     0.15452     0.15615     0.15696     0.15679     0.15675     0.15699     0.15612     0.15451     0.15529    
 0.15618     0.16032     0.16475     0.16842     0.17029     0.17083     0.17025     0.16845     0.16488     0.16007    
 0.15610     0.15505     0.15630     0.15823     0.15980     0.16049     0.15984     0.15820     0.15631     0.15481    
 0.15907     0.15982     0.16592     0.17253     0.17606     0.17652     0.17651     0.17600     0.17259     0.16574    
 0.16007     0.15917     0.16223     0.16707     0.17216     0.17549     0.17549     0.17214     0.16709     0.16241    
 0.17174     0.16531     0.16475     0.17257     0.18381     0.19056     0.19227     0.19070     0.18375     0.17254    
 0.16491     0.16510     0.17165     0.18188     0.19355     0.20329     0.20715     0.20329     0.19356     0.18172    
 0.20168     0.18222     0.17106     0.16842     0.17599     0.19079     0.20142     0.20150     0.19059     0.17615    
 0.16834     0.17101     0.18231     0.20177     0.22706     0.25163     0.26675     0.26679     0.25161     0.22717    
 0.27085     0.22508     0.19273     0.17581     0.17029     0.17642     0.19226     0.20157     0.19225     0.17646    
 0.17029     0.17578     0.19281     0.22499     0.27080     0.31834     0.35308     0.36563     0.35308     0.31829    
 0.38531     0.31392     0.24634     0.20089     0.17871     0.17087     0.17653     0.19051     0.19073     0.17645    
 0.17089     0.17869     0.20093     0.24626     0.31398     0.38532     0.44025     0.46891     0.46892     0.44027    
 0.50438     0.43483     0.34441     0.25903     0.20404     0.17867     0.17028     0.17612     0.18374     0.17605    
 0.17028     0.17870     0.20402     0.25903     0.34444     0.43480     0.50437     0.54445     0.55710     0.54443    
 0.58465     0.53940     0.45977     0.35524     0.25902     0.20093     0.17581     0.16834     0.17260     0.17256    
 0.16840     0.17580     0.20092     0.25902     0.35524     0.45976     0.53941     0.58466     0.60286     0.60287    
 0.61683     0.59930     0.55000     0.45975     0.34445     0.24625     0.19283     0.17098     0.16491     0.16570    
 0.16491     0.17096     0.19280     0.24629     0.34444     0.45976     0.55001     0.59929     0.61683     0.61982    
 0.61745     0.61822     0.59929     0.53942     0.43478     0.31402     0.22492     0.18243     0.16495     0.16033    
 0.15981     0.16533     0.18220     0.22507     0.31393     0.43483     0.53940     0.59930     0.61822     0.61746    
 0.58752     0.57904     0.54862     0.48717     0.39510     0.29486     0.22068     0.18231     0.16509     0.16199    
 0.16492     0.16195     0.16515     0.18224     0.22072     0.29484     0.39511     0.48716     0.54863     0.57903    
 0.57904     0.57903     0.56008     0.51424     0.43621     0.33746     0.24960     0.19607     0.17031     0.15957    
 0.16092     0.16064     0.15980     0.17012     0.19620     0.24953     0.33749     0.43619     0.51425     0.56008    
 0.54862     0.55889     0.54862     0.51425     0.45029     0.36175     0.27242     0.20989     0.17673     0.16069    
 0.15740     0.16017     0.15738     0.16073     0.17673     0.20988     0.27241     0.36176     0.45029     0.51425    
 0.48717     0.51143     0.51144     0.48717     0.43620     0.36175     0.28111     0.21850     0.18231     0.16310    
 0.15592     0.15884     0.15894     0.15582     0.16315     0.18227     0.21854     0.28110     0.36175     0.43621    
 0.39509     0.43216     0.44459     0.43215     0.39510     0.33747     0.27243     0.21855     0.18444     0.16509    
 0.15578     0.15709     0.16074     0.15714     0.15577     0.16510     0.18445     0.21853     0.27244     0.33745    
 0.29487     0.33312     0.35443     0.35442     0.33314     0.29487     0.24957     0.20983     0.18230     0.16510    
 0.15599     0.15581     0.16050     0.16044     0.15580     0.15600     0.16508     0.18230     0.20983     0.24960    
 0.22069     0.24635     0.26582     0.27308     0.26583     0.24631     0.22069     0.19617     0.17678     0.16310    
 0.15580     0.15576     0.15975     0.16181     0.15975     0.15578     0.15580     0.16310     0.17681     0.19609    
 0.18226     0.19505     0.20649     0.21335     0.21333     0.20650     0.19510     0.18225     0.17021     0.16066    
 0.15585     0.15714     0.16046     0.16177     0.16174     0.16053     0.15703     0.15594     0.16058     0.17032    
 0.16511     0.17179     0.17785     0.18239     0.18408     0.18237     0.17787     0.17175     0.16509     0.15967    
 0.15749     0.15885     0.16077     0.16053     0.15974     0.16048     0.16080     0.15884     0.15753     0.15955    
 0.16201     0.16407     0.16698     0.16959     0.17139     0.17141     0.16964     0.16686     0.16422     0.16202    
 0.16078     0.16008     0.15890     0.15703     0.15582     0.15577     0.15709     0.15889     0.16005     0.16092    
 0.16491     0.16848     0.17006     0.17076     0.17103     0.17115     0.17100     0.17081     0.17012     0.16832    
 0.16486     0.16077     0.15747     0.15592     0.15576     0.15601     0.15579     0.15586     0.15751     0.16062    
 0.16197     0.16816     0.17652     0.18195     0.18338     0.18285     0.18285     0.18328     0.18202     0.17641    
 0.16833     0.16202     0.15969     0.16060     0.16313     0.16508     0.16509     0.16313     0.16062     0.15980    
 0.16517     0.16429     0.17008     0.18198     0.19289     0.19727     0.19792     0.19743     0.19284     0.18195    
 0.17017     0.16417     0.16511     0.17022     0.17678     0.18228     0.18447     0.18227     0.17680     0.17012    
 0.18220     0.17167     0.16694     0.17078     0.18329     0.19753     0.20444     0.20452     0.19730     0.18347    
 0.17067     0.16697     0.17168     0.18229     0.19613     0.20987     0.21851     0.21856     0.20982     0.19623    
 0.22073     0.19514     0.17784     0.16963     0.17104     0.18275     0.19790     0.20462     0.19789     0.18279    
 0.17105     0.16959     0.17789     0.19510     0.22070     0.24955     0.27244     0.28109     0.27244     0.24952    
 0.29485     0.24628     0.20652     0.18236     0.17141     0.17118     0.18288     0.19720     0.19746     0.18277    
 0.17121     0.17137     0.18241     0.20645     0.24633     0.29486     0.33748     0.36175     0.36176     0.33749    
 0.39511     0.33316     0.26580     0.21335     0.18408     0.17137     0.17101     0.18346     0.19281     0.18337    
 0.17103     0.17139     0.18407     0.21336     0.26582     0.33314     0.39510     0.43620     0.45030     0.43619    
 0.48716     0.43214     0.35444     0.27307     0.21334     0.18241     0.16962     0.17068     0.18200     0.18201    
 0.17072     0.16963     0.18238     0.21334     0.27308     0.35443     0.43215     0.48717     0.51425     0.51426    
 0.54863     0.51144     0.44459     0.35442     0.26584     0.20645     0.17790     0.16693     0.17016     0.17636    
 0.17018     0.16689     0.17789     0.20648     0.26582     0.35443     0.44459     0.51144     0.54862     0.56007    
 0.57903     0.55889     0.51144     0.43216     0.33312     0.24637     0.19504     0.17176     0.16409     0.16850    
 0.16815     0.16433     0.17163     0.19514     0.24629     0.33316     0.43214     0.51145     0.55888     0.57904    
 0.46142     0.44859     0.41010     0.34945     0.27974     0.22164     0.18616     0.16787     0.16113     0.16676    
 0.17302     0.16673     0.16118     0.16781     0.18619     0.22163     0.27975     0.34943     0.41011     0.44857    
 0.44859     0.44856     0.42330     0.37391     0.30851     0.24481     0.19976     0.17415     0.16130     0.15961    
 0.16686     0.16660     0.15984     0.16110     0.17431     0.19968     0.24485     0.30848     0.37393     0.42329    
 0.41010     0.42245     0.41010     0.37393     0.31912     0.25921     0.21098     0.18092     0.16373     0.15668    
 0.16004     0.16459     0.16001     0.15673     0.16373     0.18089     0.21099     0.25922     0.31912     0.37392    
 0.34945     0.37191     0.37193     0.34944     0.30849     0.25922     0.21545     0.18510     0.16661     0.15665    
 0.15602     0.16090     0.16095     0.15595     0.15668     0.16657     0.18515     0.21544     0.25921     0.30851    
 0.27973     0.30563     0.31505     0.30562     0.27974     0.24482     0.21099     0.18518     0.16774     0.15747    
 0.15478     0.15791     0.16022     0.15797     0.15476     0.15748     0.16776     0.18514     0.21102     0.24480    
 0.22165     0.24186     0.25414     0.25413     0.24188     0.22166     0.19973     0.18083     0.16659     0.15748    
 0.15471     0.15667     0.15849     0.15843     0.15666     0.15472     0.15747     0.16659     0.18084     0.19976    
 0.18617     0.19792     0.20686     0.21029     0.20688     0.19787     0.18617     0.17428     0.16377     0.15664    
 0.15480     0.15662     0.15755     0.15723     0.15755     0.15664     0.15480     0.15663     0.16381     0.17419    
 0.16781     0.17432     0.17958     0.18256     0.18253     0.17961     0.17436     0.16778     0.16119     0.15669    
 0.15597     0.15798     0.15844     0.15719     0.15716     0.15853     0.15786     0.15607     0.15658     0.16130    
 0.16116     0.16390     0.16645     0.16835     0.16906     0.16833     0.16645     0.16387     0.16115     0.15970    
 0.16010     0.16088     0.16024     0.15852     0.15754     0.15846     0.16027     0.16087     0.16016     0.15960    
 0.16678     0.16561     0.16491     0.16462     0.16475     0.16477     0.16466     0.16479     0.16577     0.16675    
 0.16673     0.16454     0.16094     0.15785     0.15669     0.15663     0.15793     0.16092     0.16450     0.16685    
 0.17300     0.17596     0.17482     0.17251     0.17079     0.17020     0.17075     0.17258     0.17484     0.17581    
 0.17301     0.16672     0.16007     0.15605     0.15476     0.15472     0.15478     0.15599     0.16013     0.16659    
 0.16676     0.17566     0.18263     0.18440     0.18302     0.18153     0.18152     0.18292     0.18446     0.18256    
 0.17582     0.16676     0.15973     0.15662     0.15668     0.15747     0.15748     0.15667     0.15663     0.15982    
 0.16121     0.16582     0.17485     0.18439     0.18935     0.18941     0.18888     0.18957     0.18930     0.18437    
 0.17490     0.16570     0.16118     0.16120     0.16378     0.16657     0.16778     0.16655     0.16381     0.16110    
 0.16775     0.16380     0.16484     0.17257     0.18292     0.18967     0.19072     0.19080     0.18944     0.18313    
 0.17241     0.16494     0.16377     0.16784     0.17421     0.18090     0.18511     0.18519     0.18081     0.17434    
 0.18620     0.17441     0.16644     0.16463     0.17080     0.18142     0.18886     0.19089     0.18885     0.18146    
 0.17080     0.16461     0.16648     0.17436     0.18618     0.19971     0.21101     0.21543     0.21102     0.19968    
 0.22164     0.19784     0.17962     0.16832     0.16477     0.17024     0.18156     0.18935     0.18960     0.18145    
 0.17027     0.16473     0.16838     0.17955     0.19791     0.22163     0.24483     0.25921     0.25922     0.24484    
 0.27975     0.24191     0.20685     0.18256     0.16905     0.16472     0.17076     0.18313     0.18925     0.18302    
 0.17077     0.16474     0.16904     0.18257     0.20686     0.24189     0.27974     0.30849     0.31912     0.30848    
 0.34944     0.30560     0.25414     0.21029     0.18255     0.16838     0.16464     0.17242     0.18444     0.18444    
 0.17248     0.16465     0.16835     0.18255     0.21029     0.25413     0.30561     0.34945     0.37392     0.37394    
 0.41011     0.37193     0.31506     0.25412     0.20689     0.17954     0.16649     0.16489     0.17489     0.18249    
 0.17492     0.16483     0.16648     0.17958     0.20687     0.25413     0.31506     0.37192     0.41011     0.42328    
 0.44857     0.42244     0.37192     0.30563     0.24186     0.19794     0.17431     0.16385     0.16565     0.17597    
 0.17567     0.16586     0.16375     0.17440     0.19785     0.24191     0.30560     0.37194     0.42243     0.44859    
 0.30312     0.29407     0.26925     0.23605     0.20443     0.18097     0.16591     0.15871     0.16054     0.16842    
 0.17268     0.16841     0.16058     0.15864     0.16593     0.18097     0.20444     0.23604     0.26927     0.29404    
 0.29407     0.29402     0.27750     0.24900     0.21735     0.19074     0.17223     0.16070     0.15776     0.16254    
 0.16906     0.16883     0.16277     0.15754     0.16090     0.17213     0.19079     0.21731     0.24903     0.27748    
 0.26925     0.27679     0.26924     0.24902     0.22237     0.19697     0.17719     0.16365     0.15665     0.15781    